LAMMPS data file via write_data, version 10 Mar 2021, timestep = 5024000

12 atoms
40 atom types
10 bonds
1 bond types

0 40 xlo xhi
0 40 ylo yhi
0 75 zlo zhi

Masses

1 131.2
2 57.05
3 128.2
4 101.1
5 156.2
6 71.08
7 115.1
8 129.1
9 163.2
10 99.06999999999999
11 113.2
12 128.1
13 186.2
14 147.2
15 87.08
16 137.1
17 114.1
18 97.12
19 103.1
20 113.2
21 131.2
22 57.05
23 128.2
24 101.1
25 156.2
26 71.08
27 115.1
28 129.1
29 163.2
30 99.06999999999999
31 113.2
32 128.1
33 186.2
34 147.2
35 87.08
36 137.1
37 114.1
38 97.12
39 103.1
40 113.2

Atoms # full

7 2 9 0 29.442743122968444 19.062569347039087 17.594200301845756 -9 -4 -11
6 1 9 0 19.95087565990338 22.47263747773499 21.882233548069745 -3 4 16
8 2 9 0 29.33634513868718 22.214691110637244 19.886865619326525 -9 -4 -11
5 1 9 0 21.467614445801036 22.771644007606564 18.362651913379555 -3 4 16
4 1 2 0 20.9065982266562 26.645399813895512 17.12076911274457 -3 4 16
3 1 2 0 21.35768160138816 25.74731251128794 13.202196367698162 -3 4 16
2 1 9 0 24.212959029309662 25.120323462083814 10.8151072699708 -3 4 16
1 1 9 0 26.434858918452008 27.949681481809556 10.132238350965459 -3 4 16
9 2 2 0 30.693237825483603 25.233598968475228 21.79834653722716 -9 -4 -11
10 2 2 0 27.271269178987666 26.287469729777158 22.790849221138462 -9 -4 -11
12 2 9 0 24.68570531960284 23.855076960937655 28.94332284010068 -9 -4 -11
11 2 9 0 26.726584189876508 25.97106456292835 26.76851144679865 -9 -4 -11

Velocities

7 -5.1957290783283293e-05 -0.0024493727313003536 -0.0015001875679571898
6 -0.00042478260900107295 0.00030882110176383784 -0.002281211142199484
8 0.0001127290612078328 -0.00043322179429673447 -0.00010132967884138656
5 -0.0009503816833646781 0.00023955152737174074 0.0007301348125741405
4 -0.00048767514394179774 -0.0004763422874460276 0.004134528102917388
3 -0.0015402495039003774 -0.0029961565831829744 -0.0006324272429883476
2 0.0028021600332054273 -0.0002564909244832873 0.00027873876981090084
1 -0.001958055954197763 -0.0016023944830679312 -0.00042788695484209216
9 9.759805467757355e-05 0.001787587830961777 -0.00038172081861186015
10 -0.00040522191793763464 -0.002610709429418743 -0.0027602273527719138
12 -0.0015634335248537426 0.0020712160554910825 0.0004850849140772759
11 4.015917306675039e-05 -0.0013589004374338408 0.000719551913732604

Bonds

1 1 7 8
2 1 8 9
3 1 5 6
4 1 4 5
5 1 3 4
6 1 2 3
7 1 1 2
8 1 9 10
9 1 10 11
10 1 11 12
