LAMMPS data file via write_data, version 10 Mar 2021, timestep = 64123910

600 atoms
40 atom types
500 bonds
1 bond types

0 40 xlo xhi
0 40 ylo yhi
0 75 zlo zhi

Masses

1 131.2
2 57.05
3 128.2
4 101.1
5 156.2
6 71.08
7 115.1
8 129.1
9 163.2
10 99.06999999999999
11 113.2
12 128.1
13 186.2
14 147.2
15 87.08
16 137.1
17 114.1
18 97.12
19 103.1
20 113.2
21 131.2
22 57.05
23 128.2
24 101.1
25 156.2
26 71.08
27 115.1
28 129.1
29 163.2
30 99.06999999999999
31 113.2
32 128.1
33 186.2
34 147.2
35 87.08
36 137.1
37 114.1
38 97.12
39 103.1
40 113.2

Atoms # full

377 63 14 0 14.304226394968525 15.796320132945434 24.849125222659342 8 -2 0
158 27 14 0 12.004516845628599 14.1802883109489 6.950104444121024 -3 5 3
159 27 2 0 8.285824595279427 12.756193882067885 5.76468231591941 -3 5 3
160 27 2 0 5.97342960407813 13.641405878091193 8.50702481716118 -3 5 3
200 34 14 0 9.17076011945936 6.913960913126655 17.023191112713892 8 8 1
204 34 14 0 16.545576196805502 4.449676911796624 11.801256509631907 8 8 1
203 34 14 0 13.256513058944487 6.23204651078406 11.306767975069151 8 8 1
202 34 2 0 9.379321697956591 5.471571896754846 11.71144576127315 8 8 1
201 34 2 0 6.898562580260866 7.085888951940083 13.99180179076866 8 8 1
378 63 14 0 14.144983409262748 17.423976713246965 28.415135615187616 8 -2 0
122 21 14 0 0.5371093607946859 4.0529389404147835 22.477954393856518 -3 15 6
161 27 14 0 5.269984178265599 9.980529990682923 9.473512049475234 -3 5 3
162 27 14 0 3.8636526504518813 8.873993001722901 6.141875293062997 -3 5 3
157 27 14 0 11.305712066671655 12.90598571265084 10.418282862529392 -3 5 3
441 74 2 0 4.71366203033545 20.176716155088087 24.494248380337325 -11 3 -1
396 66 14 0 12.874192896407628 4.651364547212324 4.868549594097346 10 -10 -3
444 74 14 0 9.266710244217405 15.314384318757213 20.12603605375534 -11 3 -1
443 74 14 0 7.228067743340401 18.938759524948676 19.399423997227785 -11 3 -1
442 74 2 0 6.862979115106248 21.92132909604253 21.873768497448182 -11 3 -1
376 63 2 0 15.829826079497975 17.675902621387863 21.95268173230377 8 -2 0
375 63 2 0 15.026692226770749 17.87022120771763 18.16613756235981 8 -2 0
306 51 14 0 15.279540112957172 10.566159091117987 17.06882923064148 10 19 5
324 54 14 0 3.281113390195666 18.886820977447243 74.74280444464281 -19 14 1
199 34 14 0 7.59377860887525 8.161398217582807 20.137713025851287 8 8 1
373 63 14 0 19.37407165627996 16.513857661893162 15.183832549663883 8 -2 0
395 66 14 0 11.573079892570114 8.005952522083636 4.139877929508429 10 -10 -3
493 83 14 0 11.672149829534494 1.7834560639150605 22.65102193867822 9 1 7
312 52 14 0 2.9296184459975887 2.033039113150291 10.355935706214957 0 7 -6
271 46 14 0 16.17474724477272 16.02419902633801 73.33045192432039 2 1 2
394 66 2 0 8.446495251779277 6.772045285553236 3.1556099938488136 10 -10 -3
305 51 14 0 15.200266864710837 7.751122009181263 19.3170531364814 10 19 5
405 68 2 0 16.84917436028788 22.44755903947646 8.12418990953269 -10 1 3
406 68 2 0 17.00032012479364 19.149973910420442 8.805461393636593 -10 1 3
384 64 14 0 18.312990477987416 1.3015177103423892 19.011028183449042 -2 -3 4
586 98 2 0 14.494675417571592 37.78800180209388 4.216129093414363 -2 -6 4
393 66 2 0 6.74680976165032 4.1795979968328965 0.846236604772513 10 -10 -3
440 74 14 0 0.8886819239916399 20.71695344786279 24.697909832616247 -11 3 -1
79 14 14 0 1.2460222764098037 6.629142671258087 15.898774903711642 12 -3 -1
272 46 14 0 17.77567885688592 14.606033140948378 1.2532506001282908 2 1 3
252 42 14 0 3.384754073999204 14.421610626489406 15.79956716562385 15 -4 8
80 14 14 0 38.25825886561245 8.905987447726927 14.670323263742008 11 -3 -1
251 42 14 0 1.389562713739919 14.994891514227275 19.067607124278737 15 -4 8
273 46 2 0 21.095508210408163 13.518897192502344 1.8338546149044685 2 1 3
224 38 14 0 22.41812830719219 4.620030641167233 3.9256892209954337 -3 3 5
121 21 14 0 38.008467864643634 4.348599655500992 25.468355793696357 -4 15 6
571 96 14 0 6.673278285027512 0.8790997603836087 17.553543090152417 18 2 2
494 83 14 0 14.209976332941313 2.1445776528197382 25.202265681540187 9 1 7
355 60 14 0 36.51276361199799 15.525491608876614 26.425722851790695 8 7 2
226 38 2 0 17.074959351285727 4.610342336907124 0.8734945486847969 -3 3 5
225 38 2 0 19.684750853778024 2.4045660461073353 2.4803156311777297 -3 3 5
374 63 14 0 15.52932017531127 17.107103760090595 14.582175686026497 8 -2 0
385 65 14 0 39.36289135636234 16.031499040469882 6.844304953027727 9 -12 4
304 51 2 0 17.361468872085705 9.944144914271119 21.9103963752258 10 19 5
382 64 2 0 23.96656253966446 4.677389473385307 21.562421921960155 -2 -3 4
380 64 14 0 23.86758630802763 6.2355516188242195 15.417845268197885 -2 -3 4
381 64 2 0 24.85099304530358 3.688193696607753 18.030476136944877 -2 -3 4
311 52 14 0 4.870432039878636 0.3584355681019288 7.481585214993424 0 7 -6
379 64 14 0 21.835836911176898 9.176765733622272 13.865960683637896 -2 -3 4
386 65 14 0 38.050263197308595 14.802002812648054 10.466221442397277 9 -12 4
387 65 2 0 35.917573900765426 13.60502588633386 13.3446620950344 9 -12 4
81 14 2 0 35.38911108604722 9.145677158444466 12.742884012844893 11 -3 -1
388 65 2 0 35.85074484099532 14.449180007681795 16.899233230794053 9 -12 4
249 42 2 0 39.41983637099589 10.56209961031205 22.378307838949393 14 -4 8
248 42 14 0 35.87860116351815 10.285475881082432 21.87820870148721 14 -4 8
408 68 14 0 19.564674484824177 13.002581474685122 7.9596004643400855 -10 1 3
407 68 14 0 20.022407254225115 16.590865044656113 8.986491391852214 -10 1 3
82 14 2 0 32.33752251165788 7.02431674117881 13.78784219344502 11 -3 -1
250 42 2 0 1.2763474380325588 13.721296740760764 22.719837260542427 15 -4 8
247 42 14 0 32.631262722522 8.615793877015955 19.926938981422783 14 -4 8
349 59 14 0 29.376713372346803 12.472850315841919 12.63417279016247 -3 -3 1
350 59 14 0 28.685291260541778 16.145024801341243 12.784304942280977 -3 -3 1
351 59 2 0 26.556626323609326 18.938620163471455 13.815234292601533 -3 -3 1
84 14 14 0 28.78256935678159 4.094106508224926 8.784063373798235 11 -3 -1
303 51 2 0 21.15279930426257 9.5115034398113 22.02456668207066 10 19 5
302 51 14 0 24.361501305589076 11.237783198975585 20.864751547551908 10 19 5
276 46 14 0 26.466058309947268 7.800246453311198 74.409394373503 2 1 2
389 65 14 0 32.716421090037166 16.137248180654453 18.554171625527367 9 -12 4
275 46 14 0 25.726211821860936 10.760291283742987 1.8536043707259746 2 1 3
283 48 14 0 33.10103673263797 8.289749433425886 5.597719197547699 -7 7 8
390 65 14 0 30.315138075929024 16.337669628021505 21.543707885691777 9 -12 4
284 48 14 0 32.81604555488599 12.411453514191635 6.802473590068297 -7 7 8
301 51 14 0 26.914173621517293 10.629105948047949 23.617425641492353 10 19 5
83 14 14 0 30.36191532868094 4.190872707253663 12.62147324560294 11 -3 -1
6 1 14 0 22.581164469095647 2.700994825182935 28.435820169323616 9 13 4
223 38 14 0 20.012290125227818 6.219896155144533 6.513638423373933 -3 3 5
116 20 14 0 34.644663813571356 1.7233326323506841 4.713077129357018 13 -5 7
211 36 14 0 38.35767344915307 12.010208643160576 1.156317975042647 8 -3 -2
274 46 2 0 21.875213147980613 9.922383018609606 1.7713733923011747 2 1 3
285 48 2 0 32.87212291002315 14.432243719657249 3.431160151205233 -7 7 8
310 52 2 0 1.9050460961989846 0.11687193410660512 5.011833896853257 0 7 -6
383 64 14 0 20.212628672489036 3.733216910247225 21.358250627470678 -2 -3 4
435 73 2 0 27.206281063391515 23.86529933823087 6.9464397683453845 11 -1 0
153 26 2 0 25.8153079949445 38.46287686839979 14.524592474009742 -2 21 4
151 26 14 0 22.987850701326728 1.3064646309171353 9.675956587899712 -2 22 4
286 48 2 0 34.9455378134455 17.080719208622266 2.701207690379006 -7 7 8
296 50 14 0 26.107345476678802 17.47948719615979 3.5198808617598494 6 11 0
295 50 14 0 29.33623693183724 18.530811237708978 1.934949958644533 6 11 0
452 76 14 0 27.808165747728 36.47394752520875 9.09738834317607 -12 2 -4
439 74 14 0 39.84799597349894 21.397410940626916 21.079359282443583 -12 3 -1
462 77 14 0 38.369000942762575 20.517807773628395 14.66564996728271 1 -2 4
404 68 14 0 13.287676996128097 23.752554523837986 8.058173141428664 -10 1 3
73 13 14 0 12.876145588365636 22.14802554280923 20.56937121898039 -8 9 2
61 11 14 0 8.357752350601553 19.005785757955216 11.614853666512007 3 2 1
63 11 2 0 4.615692078759883 20.723529970561373 7.188649189723474 3 2 1
542 91 14 0 1.0615667573679366 32.8294671925096 0.871619041597192 -27 -4 -3
74 13 14 0 11.766239391292988 22.936504452747815 17.20685109754346 -8 9 2
403 68 14 0 11.910434697197843 21.807286040676384 4.71359590281096 -10 1 3
543 91 2 0 3.9570567694451793 33.47766326144533 73.20846924204764 -27 -4 -4
321 54 2 0 4.3097838584764325 27.389989998494293 73.00372851566594 -19 14 1
544 91 2 0 7.543809094239565 33.88009296132161 71.71451441359277 -27 -4 -4
499 84 14 0 15.271580345048601 35.174295496907085 20.49841125156487 5 -14 0
500 84 14 0 12.156388385974426 35.77931750393988 18.48415035060181 5 -14 0
501 84 2 0 10.677410950724916 32.233066388876715 18.208109322076677 5 -14 0
585 98 2 0 15.680697051462735 36.82917059280992 0.6690455947455936 -2 -6 4
104 18 14 0 12.659644263810529 30.163407340355924 12.892040071709598 5 -10 7
105 18 2 0 15.179924442677738 29.586223595877744 15.36466205043178 5 -10 7
502 84 2 0 8.015705602113579 30.19167920194364 20.424165640582284 5 -14 0
503 84 14 0 6.408400704311265 27.41059478766779 18.00750077275081 5 -14 0
103 18 14 0 9.013862591143194 30.478104656310304 12.153287145723358 5 -10 7
457 77 14 0 1.6636228413950798 26.15275229002451 10.360880011318253 2 -2 4
344 58 14 0 9.490158856808915 36.153931438043315 4.510739267117674 -6 -3 -3
346 58 2 0 14.025947714826902 31.06967916947119 7.068494576844461 -6 -3 -3
345 58 2 0 11.630112987972101 34.0758346838889 7.270247709238153 -6 -3 -3
504 84 14 0 2.960440261917116 26.599233440681317 18.694809863473836 5 -14 0
343 58 14 0 9.341938052100545 33.156945446557714 2.214399498531326 -6 -3 -3
107 18 14 0 21.43303242867621 32.60228623331563 15.088219280308708 5 -10 7
572 96 14 0 8.050738652777175 0.48878038719671113 14.101768633063223 18 2 2
347 58 14 0 15.71931178589297 29.230884084238898 4.588359976780385 -6 -3 -3
62 11 14 0 6.776304654477424 21.87787601285929 10.019157823065205 3 2 1
106 18 2 0 18.199563345433216 31.24170684603878 13.312769916015334 5 -10 7
75 13 2 0 14.602330621437726 23.89856247606116 14.462697040646285 -8 9 2
588 98 14 0 15.410007740333196 37.476923388268325 11.760775266278168 -2 -6 4
587 98 14 0 15.987143850040914 38.06367172176688 7.944497596437893 -2 -6 4
326 55 14 0 14.373877019760833 28.712648847747268 21.57163471900821 13 -13 7
320 54 14 0 5.931417841729784 27.020080327467145 1.0441066764612836 -19 14 2
348 58 14 0 16.872520758806775 29.33081326876468 1.0714251662674767 -6 -3 -3
325 55 14 0 18.140751482285363 27.72258208146243 22.84902575506061 13 -13 7
319 54 14 0 6.1892025769291354 26.606158242138928 5.006430888295139 -19 14 2
327 55 2 0 11.63451265129102 27.71891516731881 24.367150425946143 13 -13 7
458 77 14 0 38.20107497927562 26.115028692123794 11.77989679452335 1 -2 4
438 73 14 0 17.93665880110647 20.78965162041412 2.73601172634141 11 -1 0
573 96 2 0 7.59832773486358 37.439282081627915 11.64733098584563 18 1 2
76 13 2 0 18.068495149043653 23.837496577085755 15.186639054428946 -8 9 2
574 96 2 0 5.635186911681738 35.05930777431057 13.416488703733894 18 1 2
366 61 14 0 4.411632671436436 34.22920930385764 19.27008471590908 0 -2 -1
365 61 14 0 2.8893998567540784 33.539805603776095 22.354267308222536 0 -2 -1
323 54 14 0 1.900250587841088 21.76219516293605 72.66754000838212 -19 14 1
115 20 14 0 36.78889171149994 1.320064031337271 8.012918142033207 13 -5 7
169 29 14 0 35.3788372964652 2.0458729424197784 16.513245174762222 31 7 11
77 13 14 0 20.817284081865566 23.7569480972542 17.641496619519046 -8 9 2
30 5 14 0 38.054506835273905 31.316533475771465 16.93231851132648 -3 7 1
108 18 14 0 24.725597473713155 32.74242707264886 14.1989000035806 5 -10 7
28 5 2 0 36.141528359436265 27.31366328822958 22.581577151247263 -3 7 1
78 13 14 0 20.38212284129136 21.49480198154751 20.58901102462833 -8 9 2
434 73 14 0 31.234596401963906 23.434720850490525 6.4972339932821 11 -1 0
575 96 14 0 2.470998148671784 35.36568005833249 11.767856032222092 18 1 2
64 11 2 0 1.4891825787839335 22.48141825886182 6.422113252005375 3 2 1
436 73 2 0 24.237644635580164 22.866702885627916 4.688274750701113 11 -1 0
29 5 14 0 37.128247229177404 30.03963434573038 20.532438835147463 -3 7 1
437 73 14 0 20.701245760629917 22.64428167658166 3.5886755228764673 11 -1 0
354 59 14 0 20.620306037598176 26.203767548219947 9.867856066429496 -3 -3 1
541 91 14 0 2.238960619395729 33.138480869101805 4.648091327263393 -27 -4 -3
25 5 14 0 27.887216065430792 24.459424205979065 18.220018886517657 -3 7 1
459 77 2 0 34.680479567534114 24.881172646683208 11.3118409195815 1 -2 4
352 59 2 0 23.436916936754745 20.872925709523383 13.330630040861761 -3 -3 1
433 73 14 0 33.82490740766709 20.657806125604104 6.485035904566983 11 -1 0
460 77 2 0 32.23930098922334 21.81615043789848 12.499093879522137 1 -2 4
461 77 14 0 34.85359542195547 19.599953502381023 13.563152440390565 1 -2 4
576 96 14 0 39.107476790783885 34.059910920961 10.763341539681008 17 1 2
353 59 14 0 22.533744350696402 22.657912216348226 10.61940002305448 -3 -3 1
170 29 14 0 38.05725857345997 39.5295976514809 17.227833627952894 31 6 11
516 86 14 0 25.544131480828415 28.260940529607307 0.8744178891891604 4 -4 6
456 76 14 0 35.37894014114606 34.31822042399369 3.4395108537784336 -12 2 -4
265 45 14 0 21.176043144615672 33.18503662175378 5.160014771361792 10 7 16
266 45 14 0 23.355418238113867 31.38689338874393 7.525850086297757 10 7 16
267 45 2 0 25.845608872696992 28.262899871312232 6.929067255345741 10 7 16
269 45 14 0 31.73564900140999 30.098937903559964 9.669113176855921 10 7 16
268 45 2 0 29.404214378155505 28.75991565666518 7.205603422769085 10 7 16
65 11 14 0 38.856123494188054 24.199341195044255 4.364000498554082 2 2 1
270 45 14 0 29.953146513588436 28.819177982141255 12.477411663209438 10 7 16
451 76 14 0 31.479207568295635 37.48733362717113 8.649725744892383 -12 2 -4
26 5 14 0 30.951314916967828 25.232859620364014 20.05243055068993 -3 7 1
27 5 2 0 34.713015356885315 25.076808372618384 20.094024714289983 -3 7 1
154 26 2 0 30.018265489664692 38.345654448574436 15.036484834565158 -2 21 4
477 80 2 0 24.256878480994708 25.05112385716681 22.62010056539695 3 0 7
152 26 14 0 22.544410855989486 0.3593620144814531 13.475124673055342 -2 22 4
155 26 14 0 30.479958752677444 35.954049046216824 18.034345076803543 -2 21 4
454 76 2 0 29.043632713861545 32.252243960106505 2.8142167375426785 -12 2 -4
37 7 14 0 31.634871294221877 2.570337098052324 21.75777831810226 -3 7 3
475 80 14 0 24.640420055505402 30.608213556888874 20.344678746272752 3 0 7
171 29 2 0 38.259087586599236 36.413723460842654 19.67893403440013 31 6 11
497 83 14 0 21.865342805486105 36.503710873922216 22.880734700571576 9 0 7
476 80 14 0 24.71983538686373 28.912424571719132 23.668673075741335 3 0 7
156 26 14 0 30.677297460415637 32.1156392941839 18.24603340101604 -2 21 4
66 11 14 0 37.812331948534585 27.69013051925635 5.606042926035706 2 2 1
453 76 2 0 27.825304946496413 34.0916422527269 6.100010448650883 -12 2 -4
166 28 2 0 16.632298091027867 9.460848866904797 26.344446896891963 6 13 1
356 60 14 0 34.09336530447741 18.192647593680917 27.281578798688706 8 7 2
165 28 2 0 13.643079740037159 7.8668692260937885 24.34368804808332 6 13 1
123 21 2 0 2.8882889611031293 0.989526210283259 23.06514074539126 -3 15 6
163 28 14 0 11.774420701483232 11.339340245595928 29.176752117224268 6 13 1
164 28 14 0 10.77926210851951 9.285040298277996 26.379940288793836 6 13 1
132 22 14 0 6.795655736528605 17.174698359013107 28.676814978443304 -2 0 -3
131 22 14 0 6.254549016616763 15.453518755282277 32.02994681380038 -2 0 -3
130 22 2 0 7.129185607080717 15.896706413097633 35.790960005137656 -2 0 -3
129 22 2 0 4.443205889785776 16.227205528481118 38.3083803054901 -2 0 -3
128 22 14 0 5.928019258579287 13.819785230235182 40.50224835840897 -2 0 -3
32 6 14 0 12.001556256582075 5.856146435019393 33.21385593740413 4 -18 4
33 6 2 0 14.609443532224358 5.571302010326884 35.525993184297626 4 -18 4
34 6 2 0 13.70779785947468 7.858488838985404 38.63629463241578 4 -18 4
127 22 14 0 9.021604509842657 11.778259837678323 41.07132256076464 -2 0 -3
60 10 14 0 3.880491722136569 5.360478411357319 39.773215097604265 -16 12 2
415 70 14 0 18.63173364052277 2.2077621498763023 37.86759475935285 -9 6 9
416 70 14 0 15.575153865529959 1.1648912246964298 39.677469566385746 -9 6 9
124 21 2 0 5.635398955485519 2.54130224395308 25.264618699952727 -3 15 6
259 44 14 0 1.1211706917246453 10.46792861327796 35.00290681615677 -2 -4 -6
31 6 14 0 9.292159729333752 7.948308748159555 34.73469333511517 4 -18 4
243 41 2 0 1.7762754240913194 5.942326182594688 45.28266126883185 -13 -11 1
181 31 14 0 15.614549587544763 9.123978402386959 49.248732651127575 -7 10 1
125 21 14 0 5.457219419447313 4.8909834534947425 28.440409519007908 -3 15 6
244 41 2 0 0.5612151918795101 3.3645366811640827 48.03535060023373 -13 -11 1
59 10 14 0 2.522236797540704 3.2852717552819053 36.82900279494646 -16 12 2
35 6 14 0 15.007300013930955 11.39881290408027 38.371045115558516 4 -18 4
36 6 14 0 14.908991878635533 14.84036923148624 36.90330689066851 4 -18 4
168 28 14 0 18.96565218378412 6.8874563533302116 32.62811634113052 6 13 1
495 83 2 0 17.629304671224535 0.5822000458899836 25.495047055086257 9 1 7
126 21 14 0 1.921579630382079 4.9825502072333885 30.12023317194738 -3 15 6
167 28 14 0 17.36078629928785 6.652381760376238 28.849184601872782 6 13 1
261 44 2 0 39.72019284350519 13.862429000501336 40.7479076190113 -3 -4 -6
260 44 14 0 39.61835316429977 10.94654896454313 38.28647617258356 -3 -4 -6
372 62 14 0 14.844064692236048 0.4018145741794823 31.37887873642885 -1 5 -3
182 31 14 0 16.801337530203245 7.183627224472262 46.05781770918881 -7 10 1
54 9 14 0 15.117328961420313 15.575301667690391 49.77205334889694 -11 7 -1
564 94 14 0 2.9445410246438093 16.229168946090788 48.693796380858274 -9 4 -2
280 47 2 0 18.928877526820795 22.395836417210674 32.0476252304542 -3 7 5
418 70 2 0 9.932083116860975 0.9076240480275757 36.54052542727924 -9 6 9
43 8 14 0 6.085381356230134 39.809611045296556 43.28229836089778 -1 -11 4
570 95 14 0 9.298388374917788 18.11588573467496 46.18342421173745 -8 14 4
341 57 14 0 10.954047300878411 35.357311211492956 25.299040742875878 0 11 4
551 92 14 0 5.141122923192978 22.248916070102293 41.63170802215949 11 5 3
279 47 2 0 22.495498439840542 22.174567187525295 32.39311013504125 -3 7 5
318 53 14 0 2.528856948651791 21.432123403803995 33.33717634665082 6 -6 -2
550 92 2 0 1.9882067730462545 20.261078882516767 40.42085502980495 11 5 3
23 4 14 0 9.60752273942981 7.062679792069178 46.952038427505464 3 6 0
24 4 14 0 9.940271453721298 5.447762135070124 43.660710271919505 3 6 0
183 31 2 0 15.514983843671692 3.7163117431423376 45.77090292996957 -7 10 1
184 31 2 0 15.60874837850897 0.9618607934541691 48.415387508746676 -7 10 1
507 85 2 0 38.5302525916312 21.507206824768936 53.35792475625781 18 -5 12
5 1 14 0 23.87259225699502 6.06003245912163 27.236020489046783 9 13 4
241 41 14 0 36.55934081262525 5.062297866490911 40.13573976081369 -14 -11 1
242 41 14 0 38.41973947574482 6.445651545091397 43.21601137991828 -14 -11 1
445 75 14 0 17.89121280646205 16.093450918833387 43.255450883309926 7 1 -1
210 35 14 0 35.972695455976776 5.445890660768646 32.765067918919804 13 5 8
187 32 14 0 23.080165504378865 2.0390064095226816 44.84501462824319 -1 8 -1
4 1 2 0 22.859213017475128 8.834773360352996 29.277246946474623 9 13 4
3 1 2 0 20.338114368441982 11.665491336202644 29.797869126906228 9 13 4
2 1 14 0 21.404464051795895 13.488374735601713 26.885678249395962 9 13 4
58 10 2 0 39.45766389255362 0.8122893826261842 37.24771332912148 -17 12 2
263 44 14 0 36.16186115549233 12.746228827370288 46.410885095144955 -3 -4 -6
262 44 2 0 37.85347008798383 15.068613224563114 43.882643970143626 -3 -4 -6
357 60 2 0 35.4971342903778 19.53078585410462 30.34450656413706 8 7 2
358 60 2 0 34.20069251121665 19.559300314186103 33.96854264304984 8 7 2
480 80 14 0 20.863303513870186 23.84538427349833 27.046035147822714 3 0 7
1 1 14 0 20.472043203023002 16.0896142437565 24.32625898594351 9 13 4
594 99 14 0 22.830956650296585 9.234118056414932 37.543419232208784 -1 13 6
113 19 14 0 28.707046058684966 12.947245658213806 39.30281026482951 -17 -2 6
112 19 2 0 26.717954622893526 15.912637296095367 40.57474909341869 -17 -2 6
111 19 2 0 26.11923522665867 19.041275412205376 38.83133204970491 -17 -2 6
114 19 14 0 30.11229015120571 9.83820239203429 38.028398070499954 -17 -2 6
109 19 14 0 21.653451688217217 16.952343410335253 33.95125098029213 -17 -2 6
110 19 14 0 24.258976946033506 18.34404152807423 35.882330055185705 -17 -2 6
592 99 2 0 21.33988712077695 10.618571080814833 44.910123387759434 -1 13 6
593 99 14 0 22.6516792331033 9.865815571836979 41.42137499012131 -1 13 6
591 99 2 0 24.453167240514432 11.087095998358256 47.34879546993345 -1 13 6
359 60 14 0 32.97825253528221 15.75919147784813 34.25836826038935 8 7 2
597 100 2 0 28.103202650375042 12.784905770466512 52.07558441941211 -1 -1 7
360 60 14 0 34.555366353152635 15.257371144872923 37.677304025717085 8 7 2
560 94 14 0 36.43945661141522 8.298257310872874 54.079185022680335 -10 4 -2
205 35 14 0 27.513133966587585 11.020551613646655 32.02322416487666 13 5 8
206 35 14 0 28.051916613494676 13.866092177375155 29.259036713152597 13 5 8
57 10 2 0 38.78848882989557 38.86786919054894 40.13393585872766 -17 11 2
535 90 14 0 28.764923708747883 3.8485473534912256 41.985153678575884 -1 10 -4
209 35 14 0 33.052793643534635 6.695962603370188 31.12523126299983 13 5 8
207 35 2 0 31.73569736519809 13.133106766500743 28.545586126365812 13 5 8
208 35 2 0 33.362033389376215 10.190561402648404 30.317320111264376 13 5 8
590 99 14 0 27.638475283045242 9.189555788206214 47.49137116120593 -1 13 6
264 44 14 0 33.62707792398482 10.659862339646018 44.77754397927514 -3 -4 -6
191 32 14 0 24.62411728674665 0.680212790631316 34.689790056464496 -1 8 -1
40 7 2 0 29.81908823964459 0.07850811943035367 31.352013627690322 -3 7 3
192 32 14 0 25.60709496303041 3.93726480066898 34.5518688678255 -1 8 -1
188 32 14 0 23.636611589601234 38.57194659185017 43.40258591364467 -1 7 -1
599 100 14 0 30.996231160740074 18.29393797236425 47.29800684728818 -1 -1 7
41 7 14 0 32.006614965463534 39.73121589524443 35.04271707547546 -3 6 3
561 94 2 0 39.02329687651607 7.399126886487533 51.239174073396185 -10 4 -2
596 100 14 0 25.190999334943186 14.714154604234608 52.39550784751628 -1 -1 7
589 99 14 0 30.31167988193462 6.873390669996159 48.91755706043175 -1 13 6
328 55 2 0 9.931962762823884 28.9517000720291 27.743747951538293 13 -13 7
342 57 14 0 7.678937243795108 37.36480163049161 26.110821017642696 0 11 4
421 71 14 0 9.154147690239867 20.957471827020147 33.5923085550809 -9 -3 0
422 71 14 0 10.105989733022565 20.442389326700912 37.13934934850709 -9 -3 0
423 71 2 0 10.211996317747541 24.019476293574233 38.36938916991619 -9 -3 0
281 47 14 0 16.27418169278927 25.318704798402308 31.65946437310792 -3 7 5
417 70 2 0 11.808067198413584 2.1381650122237708 39.58824781351977 -9 6 9
427 72 14 0 11.602767496149253 37.90016443234842 45.94758214973979 3 25 4
424 71 2 0 13.480521600357896 26.42911321612546 38.48112686084345 -9 -3 0
496 83 2 0 20.308789412812352 37.93640657935901 26.372739074702157 9 0 7
282 47 14 0 13.944554300039496 24.370902077163283 28.76260273791741 -3 7 5
419 70 14 0 8.172119074569167 39.687985860412205 33.6350489423856 -9 5 9
425 71 14 0 17.121044665299976 27.62615374910625 37.6911551736865 -9 -3 0
96 16 14 0 8.28271209329995 28.864651191070834 41.59971387932334 7 13 0
420 70 14 0 6.4630063512897005 36.50475714950683 33.07586522089178 -9 5 9
313 53 14 0 6.448569344117219 24.809411927258413 27.99213486799945 6 -6 -2
329 55 14 0 10.1516286504155 30.634750102060803 30.907179881707595 13 -13 7
552 92 14 0 4.418442000447331 23.4344081216343 44.99349080688045 11 5 3
330 55 14 0 10.247925609192214 28.321680279777965 33.92096178710495 13 -13 7
426 71 14 0 18.94090521695457 24.330858015378762 37.67363057515546 -9 -3 0
340 57 2 0 13.923065192996466 36.30816759131125 27.40369287986652 0 11 4
363 61 2 0 3.3150478377078296 31.40226487941416 29.791530539622137 0 -2 -1
364 61 2 0 3.0669620244643747 32.81610587413264 26.140770492712267 0 -2 -1
47 8 14 0 10.998034499289895 35.15852159841425 38.6490849477116 -1 -11 4
45 8 2 0 4.42488913458721 36.02745772764928 38.87646177914758 -1 -11 4
46 8 2 0 7.541792367181457 33.80903190656025 38.610604364407486 -1 -11 4
48 8 14 0 13.088176857563962 35.15154103591598 35.52691377101555 -1 -11 4
361 61 14 0 3.5840376170119375 28.027966717571537 35.587986579431984 0 -2 -1
362 61 14 0 1.7034149365954012 29.381656066620344 32.471096671317746 0 -2 -1
44 8 14 0 4.464991070954034 36.74813269273538 42.491321426231586 -1 -11 4
95 16 14 0 5.0186642479035175 30.310197299141294 43.013347708969356 7 13 0
338 57 14 0 17.86811930143167 31.649450844801176 31.454457848550064 0 11 4
337 57 14 0 20.829745441345057 32.58967759153136 29.185161928848064 0 11 4
369 62 2 0 18.440024868798194 35.215366266047575 38.813062767222405 -1 4 -3
368 62 14 0 17.19593316517622 34.14045919704754 42.2259058807348 -1 4 -3
367 62 14 0 16.71255544589257 31.19415424237125 44.72868908858112 -1 4 -3
568 95 2 0 11.498720071787062 23.48362065849279 43.28839218444389 -8 14 4
339 57 2 0 15.361927006009097 32.99827140686894 28.746957651614537 0 11 4
567 95 2 0 12.007052523071714 25.92162081939139 46.375970952211965 -8 14 4
569 95 14 0 12.014279799033478 20.087361229689606 44.38796373816443 -8 14 4
566 95 14 0 9.26323980145315 26.940546770587336 48.951908181663796 -8 14 4
314 53 14 0 5.419078937542377 27.14749522205924 24.922090597671264 6 -6 -2
85 15 14 0 23.166926238340373 29.134158657600686 39.81065811197156 1 -7 -2
150 25 14 0 38.67025837222277 26.61153721844592 48.17407758151914 11 7 -2
86 15 14 0 22.645471480259925 31.699247632446397 36.98534465532398 1 -7 -2
450 75 14 0 20.25602474607246 25.893982204465665 45.71250591237893 7 1 -1
315 53 2 0 1.7169181081754277 26.873478998993228 25.379137007073155 6 -6 -2
428 72 14 0 9.851312862793087 34.519278510570594 46.00368881994291 3 25 4
245 41 14 0 3.223136691822939 1.4116848187086246 49.558885529110555 -13 -11 1
565 95 14 0 9.100118326475513 28.327490162030937 52.83543565495059 -8 14 4
173 29 14 0 38.05369119507461 37.210535452192794 26.94223626907336 31 6 11
446 75 14 0 21.274260387041235 15.97155486444091 42.43324853252526 7 1 -1
447 75 2 0 23.916486723009417 18.013187950596528 44.44872010648487 7 1 -1
479 80 14 0 24.242251501745187 21.459624298864227 26.682991452522046 3 0 7
598 100 2 0 30.856509049744375 15.141095897355463 50.112345232155384 -1 -1 7
536 90 14 0 30.99998087061293 1.4844626624819128 43.98983546160194 -1 10 -4
56 10 14 0 37.31243839980232 38.39377963695568 43.52365408255191 -17 11 2
498 83 14 0 25.335825030367204 38.387565124567416 22.97060027761053 9 0 7
172 29 2 0 38.976008059418085 38.13745631693221 23.054434758852185 31 6 11
39 7 2 0 28.45385815384015 0.6519572123844277 28.00824363183054 -3 7 3
548 92 14 0 36.75139698323684 21.84422395487007 39.45917322197851 10 5 3
94 16 2 0 1.4170657525239245 29.263148943439116 43.661399064489295 7 13 0
370 62 2 0 18.732476483438305 36.23811954322955 35.24389105980089 -1 4 -3
371 62 14 0 17.940172184784526 38.04771363655978 31.66380930812951 -1 4 -3
547 92 14 0 37.264611527262055 25.107946094802706 37.553361378539336 10 5 3
149 25 14 0 35.774404208870365 23.900429671285153 48.19199004123358 11 7 -2
189 32 2 0 23.313161216180674 36.54706136226693 40.43780524908868 -1 7 -1
537 90 2 0 29.456219406688984 39.77960203101015 46.87936422158238 -1 9 -4
174 29 14 0 1.5596345214408778 38.204053283176734 28.54677348464258 32 6 11
87 15 2 0 25.14387387771066 32.67134463593217 34.247529687535625 1 -7 -2
478 80 2 0 26.892738685592477 24.235822110205152 25.34612492207121 3 0 7
317 53 14 0 0.6443957634835868 23.073909777023253 30.643561158866206 6 -6 -2
549 92 2 0 38.21744245160442 19.004225386639316 40.82895092739373 10 5 3
448 75 2 0 21.810649893208094 20.698222260185023 45.91430074413267 7 1 -1
55 10 14 0 38.6757111439769 36.95101204408509 46.789598474522656 -17 11 2
278 47 14 0 23.993668105030245 25.40167148209629 33.20033537848825 -3 7 5
88 15 2 0 26.275918477605224 34.711471207910336 31.045783841421255 1 -7 -2
93 16 2 0 38.766074129422435 32.27128803575914 43.05866373890583 6 13 0
449 75 14 0 20.79429263560962 23.22022808892751 48.405080952801534 7 1 -1
277 47 14 0 25.936872725779597 27.82089648622406 30.713362367633316 -3 7 5
316 53 2 0 39.275307719263274 25.781411561682827 28.17777808115329 5 -6 -2
92 16 14 0 39.073302585072426 32.81455750033351 39.197767367486584 6 13 0
481 81 14 0 29.15159379827069 23.81900504921208 38.18651400039148 -1 6 -6
600 100 14 0 31.520263705516836 18.101017652301763 43.564401835085064 -1 -1 7
89 15 14 0 28.87285790888888 33.614766011894915 28.1572716693208 1 -7 -2
90 15 14 0 31.053473617286635 34.120351285536984 25.263744356663526 1 -7 -2
91 16 14 0 35.47352389612915 32.226483155288875 37.796150258813974 6 13 0
148 25 2 0 32.89080455675704 23.837259136769653 45.78956764637907 11 7 -2
147 25 2 0 33.23990980711755 26.685240704320336 43.29343048155143 11 7 -2
483 81 2 0 30.7558930793319 23.64140964777131 32.48800051403242 -1 6 -6
38 7 14 0 31.368555618685527 1.434807929574635 25.42794314924035 -3 7 3
482 81 14 0 31.219871165892734 25.94736844202731 35.762811229599514 -1 6 -6
146 25 14 0 29.88465971822516 28.25791291319459 43.65027494073098 11 7 -2
484 81 2 0 31.670329441763204 23.548895021618087 28.89516344346997 -1 6 -6
42 7 14 0 33.924349866413195 36.91505198493732 33.01707102843396 -3 6 3
190 32 2 0 22.96461473145894 38.14860171280658 37.010371422246145 -1 7 -1
485 81 14 0 32.081828952730206 27.500641258563938 28.415534482449132 -1 6 -6
486 81 14 0 34.9828467038753 28.75059691745037 30.03971759301264 -1 6 -6
538 90 2 0 29.479378077477772 35.993154318191415 45.66124746012322 -1 9 -4