LAMMPS data file via write_data, version 10 Mar 2021, timestep = 260024000

60 atoms
40 atom types
50 bonds
1 bond types

0 40 xlo xhi
0 40 ylo yhi
0 75 zlo zhi

Masses

1 131.2
2 57.05
3 128.2
4 101.1
5 156.2
6 71.08
7 115.1
8 129.1
9 163.2
10 99.06999999999999
11 113.2
12 128.1
13 186.2
14 147.2
15 87.08
16 137.1
17 114.1
18 97.12
19 103.1
20 113.2
21 131.2
22 57.05
23 128.2
24 101.1
25 156.2
26 71.08
27 115.1
28 129.1
29 163.2
30 99.06999999999999
31 113.2
32 128.1
33 186.2
34 147.2
35 87.08
36 137.1
37 114.1
38 97.12
39 103.1
40 113.2

Atoms # full

23 4 14 0 32.888670759892555 16.227420890278974 20.133082995855318 29 -5 51
22 4 2 0 32.232501012007475 13.201095905259091 22.249361315023933 29 -5 51
20 4 14 0 29.380398986383284 9.236611331070531 17.541991456767022 29 -5 51
24 4 14 0 30.08958360479183 18.48730640247181 20.35332574663883 29 -5 51
19 4 14 0 31.43150656363904 8.130139001234616 14.487297121294715 29 -5 51
30 5 14 0 23.88034126683935 1.919163413541365 10.30241758105227 54 -125 -11
21 4 2 0 31.230142950459598 10.166146855504252 20.309874058847612 29 -5 51
1 1 14 0 4.64547660493004 22.581501833243887 17.490850107907402 -21 37 25
9 2 2 0 11.624949304293326 28.81795195238737 11.451509028590152 3 -39 21
10 2 2 0 14.350520980029891 29.991874396952785 13.218496126533033 3 -39 21
11 2 14 0 17.794767334921982 28.534172835110656 12.90969425176479 3 -39 21
8 2 14 0 12.926790456793531 28.974570432947296 7.710469986898056 3 -39 21
7 2 14 0 10.55079653863585 26.60010103778051 5.635507171470265 3 -39 21
37 7 14 0 2.6833622559203394 35.21667410128757 10.057283509306778 55 11 17
44 8 14 0 10.43541877820859 28.41918338593247 21.543409107198453 -19 0 0
43 8 14 0 11.306398203263315 25.531098427133614 23.25544423611026 -19 0 0
38 7 14 0 3.1584408789428355 32.47056231748523 13.07694226802529 55 11 17
48 8 14 0 18.101590596566826 26.33942743711761 22.305922164347617 -19 0 0
45 8 2 0 11.377142905356727 29.744256283819063 18.55094632382701 -19 0 0
46 8 2 0 15.181855308058678 30.170939206004405 19.346952621303398 -19 0 0
47 8 14 0 17.122125386320494 29.874561026586154 22.42209254339667 -19 0 0
3 1 2 0 3.8203943424194544 20.83650175525388 24.10542108576296 -21 37 25
2 1 14 0 3.128783370936507 21.88529011161066 20.584504749871844 -21 37 25
49 9 14 0 28.858216004442223 35.54398925686217 11.334621964827932 -12 60 -5
12 2 14 0 20.912587553457282 25.836706558063877 12.70382544334113 3 -39 21
39 7 2 0 39.56538877951368 31.785404126384822 14.175347145485365 54 11 17
25 5 14 0 28.538785232536775 30.155991812420112 5.289845386169972 54 -126 -11
42 7 14 0 34.934417814129965 26.340264117609085 7.799471993110434 54 11 17
41 7 14 0 36.52973749264898 29.5037132407804 9.474541090628822 54 11 17
40 7 2 0 37.557462275697674 32.763134226118446 11.113040586308339 54 11 17
54 9 14 0 22.75065562184331 32.31455232141754 18.24928496734313 -12 60 -5
28 5 2 0 21.618634644859963 35.194999355386585 11.062372663312358 54 -126 -11
50 9 14 0 30.898402750293812 32.52973180834789 12.049891031059328 -12 60 -5
51 9 2 0 30.134035418968104 29.03122967061276 12.575873962330407 -12 60 -5
27 5 2 0 23.71992631723848 35.03109035149317 8.006153628148953 54 -126 -11
26 5 14 0 25.861770699974674 31.769167281007007 7.7521596448088985 54 -126 -11
29 5 14 0 22.75791603883028 38.95807962844847 12.114443790713201 54 -126 -11
52 9 2 0 26.826581166900695 27.99672663901863 13.562022901023395 -12 60 -5
53 9 14 0 25.230803445241765 30.445679000681544 15.719820654421666 -12 60 -5
4 1 2 0 2.798155972760497 18.396621064097083 26.58707692103772 -21 37 25
35 6 14 0 0.7296084266719733 16.9966296821628 46.950285266367864 -12 81 2
36 6 14 0 0.304271218157557 14.929863530248754 43.827961348299894 -12 81 2
34 6 2 0 2.8621909005281556 19.603896151296983 47.45281412903541 -12 81 2
6 1 14 0 37.21205682588358 15.344137755787553 29.36306343868864 -22 37 25
5 1 14 0 39.352703571854704 17.82127783126509 27.906212029807616 -22 37 25
55 10 14 0 16.219828695444498 21.062822318453502 28.5611879137275 -30 31 14
56 10 14 0 19.252158357420132 20.951246777718538 30.846081049826555 -30 31 14
57 10 2 0 22.529848679174656 22.69467554271348 31.44924256030768 -30 31 14
59 10 14 0 27.470461985409734 28.111696777588776 29.78438964255444 -30 31 14
58 10 2 0 24.981975267680824 25.472486907259512 31.34414077694231 -30 31 14
60 10 14 0 27.776293546129125 30.948469973890354 32.48347208708485 -30 31 14
18 3 14 0 29.49883170749616 26.365267007466304 40.19770706680491 33 39 51
17 3 14 0 33.06603137611521 27.520025089327486 39.261414088735236 33 39 51
14 3 14 0 35.402409820113846 23.609115910669548 32.51703560873786 33 39 51
15 3 2 0 36.21561843946459 22.38443997059432 35.71668204035886 33 39 51
16 3 2 0 34.62933723487804 24.226527962575446 38.62643207925845 33 39 51
13 3 14 0 32.867587675677655 21.246003496930463 30.43499518098462 33 39 51
31 6 14 0 0.34653604339936095 17.503306906305035 54.511134633921976 -12 81 2
32 6 14 0 1.8539792937625197 20.877950974659893 54.32730004892198 -12 81 2
33 6 2 0 1.218447316896691 21.485826884786068 50.71026363224799 -12 81 2

Velocities

23 0.0019213132132492531 9.159370547187862e-07 2.787217747383853e-05
22 0.0013186160572254562 -0.002392103670931707 0.003217811811302198
20 -4.890390265745356e-05 4.6267356597524597e-05 -0.0011643202540751962
24 -0.0005004883023990672 0.0012883120055542496 -0.0007871837661716502
19 -6.3733777618457e-05 -0.0006770689717436892 -0.0004026107970992833
30 -0.0004208532629730599 0.0016652645163489448 2.334623836916399e-05
21 0.0010837963548294264 -3.0774566582488026e-05 -0.0009057826087158236
1 0.0010735784879668925 -0.00237953307422689 -0.0011239405322476881
9 -0.002430611963378144 -0.0004276906095097988 0.0024591660237861393
10 -0.003239122914926621 -0.0002611334607926388 0.0027085159485345546
11 -0.001193439523948012 0.0005881778024197044 -0.0014024418741932015
8 -0.001520352514008691 0.0009154190948437121 -0.0030573889448702214
7 -0.00015484566432646133 -0.0015190365138944097 0.0010620778805182126
37 -9.480358284347541e-05 -0.0007320469185598575 -0.0006402787763291983
44 0.0014244509700833364 0.0029795881753315098 -0.0008308299927462159
43 -0.0014758854354412164 -9.00956332490831e-05 -0.0006600315797691575
38 0.0007405677722509133 0.0003801596858098132 0.0012174405323894238
48 -0.00043010975643100206 -0.000604960281891742 0.0011266405345350997
45 0.002901839378143596 0.0013769497194687846 0.0014706601892228845
46 0.0018847996893085225 -0.0011539530302963103 -0.0013718328495764326
47 0.00017242071384008834 0.0011032758150835882 0.00014760697027055988
3 -0.0010474752447700378 0.0007772835222641977 0.0028711367592031893
2 -0.001464825246326937 0.0001644791967583608 -0.0005852760813872434
49 0.0007172082802225274 0.0013780886999940824 -0.0012915241082870552
12 0.0003145256179602201 0.002425871692574204 -0.0001706679044058761
39 0.0011942715535370296 -0.003215469644842521 -0.0008558171720411509
25 0.00038450744045257965 0.0006471471585425497 0.0004202412502728056
42 -0.0001339218584645736 -0.0029510650682863316 0.0017471876635241235
41 -0.0007381088040855515 0.0009759861337479436 0.00301943110512719
40 -0.0009770613744866285 -0.0022354860325383987 0.000802774799126753
54 -0.001463448923772479 0.0004080013201101277 0.001123987019061005
28 -0.0005569287752024309 0.0014006630182195274 -0.005094375011726471
50 0.0003145395242034456 0.0009334751650156557 -0.0014356104696594855
51 -0.002350339093697875 0.005272266798555106 -0.0017710628641903349
27 0.0017494373824075353 0.00042573846578267767 -0.0009061117045971932
26 0.00047555613821315525 4.536488529010669e-05 0.0021417812681291514
29 -0.004170434840598251 0.00029387210405697986 -0.0011945843292479898
52 0.0003469878585525879 -0.001978453689662675 0.004070517937923117
53 -0.0011952816058003772 0.0008830694734684022 -0.0003920784658213859
4 0.0009708081049032458 -0.0006316452569017795 -0.0026746332543343145
35 0.0012943040813276053 0.0030182082544118125 -0.0024597750940153645
36 -0.0012180898977984908 0.00028877891113508487 -0.00026060130762857757
34 0.0022655235127559833 -0.0001968994135485809 -0.000788758325477914
6 0.0005931538588711651 -0.0016546461109366605 -0.0004307747200247532
5 -0.0018350912196685152 0.000976900695486552 -0.00011018699812171358
55 0.0003286610078133327 -0.00036015141486383953 -0.0007461726757741855
56 -0.0010547728639383955 0.0011873360412696875 -0.0016082358829069352
57 0.0014049190959421094 -0.0017727011057062328 -0.0020845144787300053
59 0.0004076347033004192 -0.00034961361075910684 -0.001620063348481803
58 -0.0009252059860386348 -0.00018938639361369263 -0.0014228027150982227
60 0.0007227084513140004 -0.001987460965102094 -0.004228432012489329
18 -1.3105986482617087e-05 0.00010924668512340028 -0.0004592247670933475
17 -0.002467656383092095 -0.000304833661956953 0.000412970331742506
14 -0.0011742310691753007 0.0013053339380803795 -0.0014016212883569425
15 -0.0030669412295291697 0.003182106955823716 0.003861864810099992
16 -3.3220781197222176e-05 -0.001579427883088715 0.0038608037244506634
13 0.00043367529386889326 -0.001853694285041539 -0.0005237549963323344
31 0.0005353458405243094 -0.0009335515339426657 0.0010416100819580613
32 0.00034605477425565166 0.0015669617886132016 0.00047481368046289993
33 0.0023239340032119925 -0.0023014299198786145 0.0025435704978665277

Bonds

1 1 23 24
2 1 22 23
3 1 20 21
4 1 19 20
5 1 21 22
6 1 1 2
7 1 9 10
8 1 10 11
9 1 11 12
10 1 8 9
11 1 7 8
12 1 37 38
13 1 44 45
14 1 43 44
15 1 38 39
16 1 45 46
17 1 46 47
18 1 47 48
19 1 3 4
20 1 2 3
21 1 49 50
22 1 39 40
23 1 25 26
24 1 41 42
25 1 40 41
26 1 28 29
27 1 50 51
28 1 51 52
29 1 27 28
30 1 26 27
31 1 29 30
32 1 52 53
33 1 53 54
34 1 4 5
35 1 35 36
36 1 34 35
37 1 5 6
38 1 55 56
39 1 56 57
40 1 57 58
41 1 59 60
42 1 58 59
43 1 17 18
44 1 14 15
45 1 15 16
46 1 16 17
47 1 13 14
48 1 31 32
49 1 32 33
50 1 33 34
