LAMMPS data file via write_data, version 2 Aug 2023, timestep = 4024000, units = real

1200 atoms
40 atom types
1000 bonds
1 bond types

0 40 xlo xhi
0 40 ylo yhi
0 75 zlo zhi

Masses

1 131.2
2 57.05
3 128.2
4 101.1
5 156.2
6 71.08
7 115.1
8 129.1
9 163.2
10 99.06999999999999
11 113.2
12 128.1
13 186.2
14 147.2
15 87.08
16 137.1
17 114.1
18 97.12
19 103.1
20 113.2
21 131.2
22 57.05
23 128.2
24 101.1
25 156.2
26 71.08
27 115.1
28 129.1
29 163.2
30 99.06999999999999
31 113.2
32 128.1
33 186.2
34 147.2
35 87.08
36 137.1
37 114.1
38 97.12
39 103.1
40 113.2

Atoms # full

1142 191 14 0 4.643612623338339 10.371320012173483 13.77370094817617 0 0 0
61 11 14 0 10.229590947661388 11.02443654585506 15.957702625468164 -1 0 0
62 11 14 0 8.509038544112295 11.264335740308418 18.173551543553575 -1 0 0
56 10 14 0 9.470882744188685 13.684680558764441 10.05856905069989 -1 0 0
1143 191 2 0 5.999994620148265 14.051600953470244 14.297453041180189 0 0 0
969 162 2 0 4.198249182139489 13.855959573049274 10.454751015220527 0 0 0
57 10 2 0 11.74915027155183 14.217268740521215 12.098627773790735 -1 0 0
60 10 14 0 8.31784432562917 17.03154109447088 19.358649148600346 -1 0 0
1144 191 2 0 6.7785375562291375 17.18235601265748 12.403032831153965 0 0 0
147 25 2 0 13.126789459373423 14.656952917750019 18.814844440365345 -1 0 0
252 42 14 0 14.051700602621583 9.753883001723816 11.324018334061911 -1 0 0
58 10 2 0 11.30003064041893 17.089444162085137 14.088836688301491 -1 0 0
232 39 2 0 15.345035242933813 11.86306512058907 16.592651711423326 -1 0 0
251 42 14 0 15.89282614004428 10.92468840618773 9.752150749799386 -1 0 0
233 39 14 0 16.107923280844 14.72249170404512 14.623951178923129 -1 0 0
148 25 2 0 15.557917228307208 17.155087399081772 19.357987591217523 -1 0 0
245 41 14 0 13.65531845443408 17.90193910329949 8.80965657883631 -1 0 0
59 10 14 0 9.217158524839771 17.273855818676203 16.83885632864924 -1 0 0
797 133 14 0 3.172890394375517 13.487079325273788 19.544951398617634 0 0 0
978 163 14 0 3.4668648636619053 18.105177142165143 8.028656775922052 0 0 0
55 10 14 0 8.413632046561752 15.077196331477362 7.632840049278997 -1 0 0
968 162 14 0 3.367764668447522 11.96012044020142 7.562658510620927 0 0 0
244 41 2 0 13.516459583773896 14.951064182644677 7.10291197329212 -1 0 0
250 42 2 0 16.43489944350786 12.180675522008466 6.6141338120617235 -1 0 0
243 41 2 0 12.23748994033571 11.427637970967897 6.1990388565015895 -1 0 0
970 162 2 0 2.814826929498108 16.46638098919673 12.863116974847491 0 0 0
798 133 14 0 2.2583335878354935 14.71153891370736 17.644501775684827 0 0 0
234 39 14 0 16.594838935100068 17.257997004820595 14.39910817431177 -1 0 0
1156 193 2 0 10.692001071705155 17.370442325791956 4.01700183751101 0 0 0
249 42 2 0 16.052238229578176 10.660299415773085 3.7100900892940394 -1 0 0
1155 193 2 0 11.529114374898787 14.070649972774122 3.2293844315702747 0 0 0
1153 193 14 0 6.857007343812905 10.95114445045149 2.307852804649611 0 0 0
167 28 14 0 16.28780778985635 15.973259836540384 2.6681238930277353 -1 0 0
1074 179 14 0 2.7261721503109357 15.665415093131989 2.284239293659767 0 0 0
1073 179 14 0 5.169968699968143 17.392961824034565 2.229849713151137 0 0 0
1154 193 14 0 8.58319229656774 12.563809708731684 2.3250819956843705 0 0 0
248 42 14 0 14.427844097195415 10.110590930964767 0.8965195703156705 -1 0 0
242 41 14 0 10.233135923253762 8.686957876634416 6.746255487596253 -1 0 0
231 39 2 0 14.973509590136626 8.482144058092576 17.537242078134298 -1 0 0
795 133 2 0 4.700083430458417 8.187281713896185 19.337406209164417 0 0 0
247 42 14 0 12.386320086196266 7.881117480457847 1.3310365179265342 -1 0 0
241 41 14 0 7.993296250379993 8.171691180743649 8.977387448198812 -1 0 0
863 144 14 0 1.7039978026627505 7.60871871632028 0.5008448966428828 0 0 1
1141 191 14 0 5.057387039089362 7.536731373187923 14.33675488178553 0 0 0
69 12 2 0 10.04454947637932 5.8402159485812515 12.975825097127004 -1 0 0
70 12 2 0 9.18665775839675 5.8994049975967116 16.344726481703525 -1 0 0
71 12 14 0 9.568424710212428 5.4833131372083646 19.575542105294392 -1 0 0
156 26 14 0 15.762540881518941 5.9366743238162245 6.208987837174293 -1 0 0
1147 192 14 0 2.5751412734017944 5.4815720851784295 7.392826756924096 0 0 0
230 39 14 0 14.50542218863731 5.828417831931266 15.899652706827428 -1 0 0
794 133 14 0 3.3421251440724222 5.21793879806072 19.896287940967582 0 0 0
1171 196 14 0 7.058727646240775 5.211229178511101 3.041841658982928 0 0 0
336 56 14 0 18.472307466884843 5.298750371588667 11.956211776472612 -1 0 0
323 54 14 0 18.884131630571773 13.171694396472159 20.902122814667102 -1 0 0
151 26 14 0 18.980520011351157 6.0879573575632335 1.4032664516111804 -1 0 0
166 28 2 0 19.621113416524476 16.057510638094804 1.241258975895758 -1 0 0
237 40 2 0 19.223332704581093 11.506609428445822 0.8471884621632165 -1 0 0
329 55 14 0 19.83379012645681 10.101149177985263 15.247677848087838 -1 0 0
68 12 14 0 11.95727908299177 4.091435663070448 10.59154142984748 -1 0 0
967 162 14 0 1.3890099117368861 11.063286147458586 5.768371240510803 0 0 0
1148 192 14 0 1.4713136059177818 6.550939857580882 9.799193802838511 0 0 0
155 26 14 0 14.309263220157188 3.3873311557806676 4.570849959082752 -1 0 0
1172 196 14 0 8.271092725548622 3.2666130563577647 4.985458149095039 0 0 0
152 26 14 0 19.53753823853059 2.7257473369442615 1.0444679428624217 -1 0 0
381 64 2 0 1.5696669230164093 3.1203183798027974 14.992475874228035 0 0 0
229 39 14 0 13.882003619027971 2.7794234320022015 16.596623628155218 -1 0 0
63 11 2 0 7.4953320838717135 10.705444156024022 21.139469119564854 -1 0 0
145 25 14 0 13.23800351748266 10.68564140114654 21.697898389348982 -1 0 0
796 133 2 0 2.74474624647915 10.528116005517163 21.121642952879256 0 0 0
217 37 14 0 16.437719336119663 5.675287550613932 21.64730264906958 -1 0 0
67 12 14 0 13.581297514285167 1.907754343496909 10.42264134998622 -1 0 0
1081 181 14 0 6.009503619856766 2.5528093992169625 11.311922865979112 0 0 0
146 25 14 0 12.318485230831964 13.561098483609074 22.179124524788836 -1 0 0
793 133 14 0 3.6702578016903002 3.4579767528524608 22.121657604273693 0 0 0
72 12 14 0 9.495383530632413 5.263547903530384 22.237382860935465 -1 0 0
341 57 14 0 19.615236383291673 18.080645303073503 7.379423282262444 -1 0 0
1180 197 2 0 9.097260145093683 1.4985885748706362 15.327898122750602 0 0 0
1181 197 14 0 6.394312426443558 0.8421695415374917 16.86734127797784 0 0 0
324 54 14 0 19.749858280586054 11.175707119385267 22.778049146290275 -1 0 0
1082 181 14 0 7.391109465856751 0.36118580090378766 10.37085929483686 0 0 0
843 141 2 0 6.247749128850077 0.27774068369227184 0.9025222336888257 0 0 1
154 26 2 0 15.562198457386451 0.6709208184213211 4.710741685919908 -1 0 0
218 37 14 0 16.126221665406995 3.1793285919269145 22.56234517334034 -1 0 0
342 57 14 0 19.50135373951172 15.810201662138551 8.909949082669533 -1 0 0
168 28 14 0 15.49102121091185 18.930032561158065 3.237774814769979 -1 0 0
432 72 14 0 19.684851195086658 19.34408623740564 22.25242979429972 -1 0 0
1173 196 2 0 10.404833635678967 0.5245889361030337 5.640897237155671 0 0 0
618 103 14 0 3.0492859240456993 19.42387688149903 21.719324840788587 0 0 0
971 162 14 0 2.7418361000783267 19.570863713973235 13.999314984704682 0 0 0
1145 191 14 0 8.447179372160189 19.93799091204734 11.192507738456367 0 0 0
150 25 14 0 13.335326860671735 19.399908477864724 23.407273446497612 -1 0 0
789 132 2 0 1.1298436425266607 12.793296237438305 24.274977013243397 0 0 0
617 103 14 0 0.4854983787670761 19.728670515789734 20.36545805027709 0 0 0
308 52 14 0 19.089430762188158 0.47188995178342946 8.252949478033317 -1 0 0
311 52 14 0 19.37709461413366 0.4522903046742461 15.707094110562833 -1 0 0
149 25 14 0 13.7561322562617 19.736000289565354 20.612022784806534 -1 0 0
219 37 2 0 18.634991612519464 1.206880031740756 24.057729833541167 -1 0 0
880 147 2 0 5.2529992601342395 12.212463919330686 24.319605121292213 0 0 0
382 64 2 0 0.49159547562185346 1.9810340814380858 17.969534309601055 0 0 0
991 166 14 0 0.9767573218631292 0.1899393215125826 4.4273151612428725 0 0 0
881 147 14 0 6.2403802305944325 15.40688756655835 24.710310903411653 0 0 0
64 11 2 0 8.99128059171801 10.179994582957605 24.248207726805695 -1 0 0
879 147 2 0 4.821397732326058 8.329987073757351 24.114518905333327 0 0 0
238 40 2 0 19.944361375440202 13.124925480252884 4.193196283540282 -1 0 0
977 163 14 0 0.5634145455397702 17.325179294062085 8.313727938821861 0 0 0
379 64 14 0 0.15955642677042192 0.7461153575726485 10.895576926935469 0 0 0
862 144 2 0 2.381079306382693 10.926902774800768 0.23012078360136365 0 0 1
312 52 14 0 20.226057639398704 2.3355930778269416 17.816850461423144 -1 0 0
340 57 2 0 20.6686431122931 18.77075482810935 4.407617204626209 -1 0 0
330 55 14 0 20.346303170868 8.327116200652043 17.345953323154834 -1 0 0
431 72 14 0 20.172000113393338 19.5547915804426 19.12779141538805 -1 0 0
328 55 2 0 20.625742603684795 11.376594359315765 11.80038742414622 -1 0 0
307 52 14 0 21.037337925612288 2.0794971725630518 6.754731576833353 -1 0 0
1149 192 2 0 39.793427953645086 6.313245603920966 12.500261515343759 -1 0 0
388 65 2 0 39.57444199256671 8.221082521895958 21.860505241125576 -1 0 0
864 144 14 0 39.62428719286168 6.324141878607525 2.3293285037328038 -1 0 1
322 54 2 0 20.41941728650506 14.302646340830975 17.70530769696247 -1 0 0
335 56 14 0 21.243596281897588 5.3796765355209395 11.716416183664096 -1 0 0
385 65 14 0 39.353773011054756 9.088650552521107 16.841350976061566 -1 0 0
240 40 14 0 21.241484804012266 8.157613153726732 6.671101973708061 -1 0 0
239 40 14 0 21.038749512539695 10.582290937741368 5.810569883608549 -1 0 0
1152 192 14 0 39.16947123371891 13.037334629988363 12.260927648937583 -1 0 0
387 65 2 0 37.865422600691296 5.585741591745993 20.472847253084876 -1 0 0
386 65 14 0 38.14511959326933 6.40888698215 17.18464990278635 -1 0 0
885 148 2 0 37.78186340506268 17.023799539165392 4.0185993902943995 -1 0 0
1151 192 14 0 37.7788373382167 11.35096374304804 10.608315920222557 -1 0 0
976 163 2 0 37.545243090372786 16.30765113614324 8.34633582695946 -1 0 0
787 132 14 0 36.684327902798465 13.10194046947042 20.583073028348846 -1 0 0
701 117 14 0 36.80391423843572 18.702465221284395 13.400088715352595 -1 0 0
321 54 2 0 21.891298241996513 15.055089723192209 14.503158042532277 -1 0 0
702 117 14 0 36.68598495677069 17.14187895722915 15.99112140196702 -1 0 0
415 70 14 0 33.98244981688181 11.628589830815507 15.307802894346322 -1 0 0
326 55 14 0 26.679866524431414 11.226681143516936 8.872283828520812 -1 0 0
332 56 14 0 25.70722892587413 11.740430100136422 15.641012312142736 -1 0 0
327 55 2 0 23.614730280885507 12.357749751045807 10.147800906374082 -1 0 0
409 69 14 0 25.369382065844366 9.486519633609142 21.03749676517182 -1 0 0
331 56 14 0 28.161988481473173 12.743174141824232 15.1386307304048 -1 0 0
517 87 14 0 30.66418685314596 13.013338059780715 20.431597658046982 -1 0 0
697 117 14 0 32.226307741222925 14.000568661191187 8.087319926747574 -1 0 0
698 117 14 0 32.84464985964996 15.235296472792822 10.710748064799624 -1 0 0
355 60 14 0 24.84824428202869 15.776139708084388 20.17495249132834 -1 0 0
319 54 14 0 27.108506261162848 16.725908079288008 10.836341334321832 -1 0 0
320 54 14 0 24.221537656872396 16.666252623581173 12.466396025485823 -1 0 0
433 73 14 0 31.008080563615504 17.84787816302662 15.981911899158868 -1 0 0
435 73 2 0 29.111291901909947 18.658773654716747 21.71117025500537 -1 0 0
975 163 2 0 35.34913040398598 18.617125999867188 7.1512075192954665 -1 0 0
325 55 14 0 27.14152688884424 9.346575434037751 7.368489798497278 -1 0 0
337 57 14 0 24.784945673687645 15.384204682404047 5.5147468674038995 -1 0 0
699 117 2 0 32.36087635133631 19.07850094749829 10.53123325296877 -1 0 0
434 73 14 0 29.553963724286575 18.985676881203776 18.351356364097494 -1 0 0
884 148 14 0 36.4997647793939 13.980517899874958 3.7685527228930082 -1 0 0
762 127 14 0 30.072392559592778 12.691413278827198 3.0174074494456327 -1 0 1
338 57 14 0 25.312327684704712 16.62513874134527 2.7858810639834384 -1 0 0
761 127 14 0 31.140001496987143 10.275600310954639 2.3592136326357207 -1 0 1
339 57 2 0 23.427050836737525 18.869578879463262 1.7420512516745676 -1 0 0
883 148 14 0 37.10549541739762 11.715283644898348 1.6224890188586383 -1 0 0
235 40 14 0 24.654632309512955 10.910710714514341 0.7634038712897063 -1 0 0
333 56 2 0 24.35838755702982 9.728931763624466 13.337495717203819 -1 0 0
303 51 2 0 31.965568615117334 9.329142070916213 11.040350508295772 -1 0 0
416 70 14 0 32.63375771897978 8.940697003558345 16.296396994118965 -1 0 0
766 128 2 0 32.74810538746167 16.191497264937716 0.695795914486307 -1 0 1
417 70 2 0 29.602933247625007 8.387456888865245 18.24874660298418 -1 0 0
301 51 14 0 35.35401208839434 7.927806643183048 6.015576316495045 -1 0 0
1150 192 2 0 36.749656854538884 8.410909918308917 12.393699934755404 -1 0 0
302 51 14 0 33.49793043276436 8.183074756946915 8.098489758328064 -1 0 0
304 51 2 0 29.111513146952152 7.564068591312537 12.154949364590346 -1 0 0
334 56 2 0 23.5976527980378 7.5604962649016185 11.01627809017675 -1 0 0
305 51 14 0 27.397437587452544 5.913996632933362 14.501983606695322 -1 0 0
213 36 2 0 30.068592697497653 5.818717198489384 4.975101813728548 -1 0 0
212 36 14 0 27.585679807729075 5.462176716351322 2.7643677383785237 -1 0 0
214 36 2 0 29.570841762053114 5.1765439856543765 8.752172650016753 -1 0 0
306 51 14 0 25.4545427724853 5.515282292991685 16.39180413946864 -1 0 0
394 66 2 0 36.53056392297941 4.542379610694696 10.362467752830133 -1 0 0
211 36 14 0 24.892837534927665 5.156043183715649 2.658730531378926 -1 0 0
756 126 14 0 33.82098774868304 4.624319019900566 1.5259736215072994 -1 0 1
315 53 2 0 28.265944903550675 4.424361616687985 20.741212798817823 -1 0 0
393 66 2 0 37.37244471970269 3.3916372219532067 6.978581562109558 -1 0 0
395 66 14 0 33.87552282748277 4.212755168372972 12.773479972267962 -1 0 0
215 36 14 0 26.59909785280199 3.528135047422034 8.79593695406468 -1 0 0
313 53 14 0 33.381279615287525 3.2111109399949633 18.681808089528182 -1 0 0
314 53 14 0 30.29956232126043 2.6531921137400194 18.86198277613833 -1 0 0
755 126 14 0 35.23821330044199 2.4536384318698072 0.14614773988246554 -1 0 1
418 70 2 0 31.00103209157146 7.394899862401277 21.31856527858397 -1 0 0
601 101 14 0 34.530243005839125 18.434038600294794 21.386569560948747 -1 0 0
316 53 2 0 25.261382429852414 2.208767332043899 20.59562646009912 -1 0 0
396 66 14 0 31.73168328476653 2.149541124936922 12.35179979607261 -1 0 0
391 66 14 0 31.947205615372475 1.4332425011971437 6.404922553286583 -1 0 0
216 36 14 0 25.72024996221948 1.714202347920527 10.792105385755551 -1 0 0
419 70 14 0 33.87745060602395 8.242038322478646 22.564508666776128 -1 0 0
392 66 14 0 35.23281704966001 1.0891851222058617 6.746824092016132 -1 0 0
317 53 14 0 23.327058307120183 3.6813300961056585 22.602759638431127 -1 0 0
741 124 2 0 30.337703149245826 0.4486319254345568 1.5950492199857003 -1 0 1
380 64 14 0 38.73404981535379 0.9722894409617171 13.454664189567973 -1 0 0
384 64 14 0 37.53511532121818 0.7628266736067931 22.33780844424507 -1 0 0
518 87 14 0 30.81552055222506 13.86851896772559 23.166034791353546 -1 0 0
410 69 14 0 26.675473971121715 9.10632259411355 23.413169779096943 -1 0 0
973 163 14 0 30.209194007766087 18.997226955284336 5.331629552249473 -1 0 0
430 72 2 0 22.375557804630013 18.368239677559327 16.952274260812384 -1 0 0
788 132 14 0 38.3369903889815 13.073581045372316 23.215644779952452 -1 0 0
974 163 14 0 33.03978917223862 19.214510559850037 4.888444415567989 -1 0 0
356 60 14 0 24.524349076358614 15.141421995773506 23.090667430419696 -1 0 0
602 101 14 0 35.79445017192216 18.50826486954885 23.857796887283634 -1 0 0
318 53 14 0 21.743516424059475 5.603478276565997 23.961021908081523 -1 0 0
310 52 2 0 21.26223706482781 0.48382091433793306 13.235102368715468 -1 0 0
436 73 2 0 27.975461653689806 18.707091996461966 24.741953006946776 -1 0 0
403 68 14 0 32.24545694871407 3.095957937125842 24.782932079930312 -1 0 0
153 26 2 0 18.627491165164837 39.48677846731195 2.7904653027346846 -1 -1 0
98 17 14 0 8.128765668841291 39.335054965296415 22.524960897273054 -1 -1 0
97 17 14 0 10.6851094825616 39.70940984892469 21.12502047098095 -1 -1 0
992 166 14 0 3.5081334165215576 39.43975468822897 5.949928634047831 0 -1 0
1182 197 14 0 4.521421856294074 39.03954911183927 16.943206955914796 0 -1 0
246 41 14 0 14.432040688678338 20.66932616601979 9.8568528011876 -1 0 0
1157 193 14 0 9.55379583203129 20.75915589313624 4.645730148910103 0 0 0
972 162 14 0 4.4004821131397 21.19978986540069 15.914202335059533 0 0 0
270 45 14 0 12.259400826096558 22.075170491024164 15.294470654536836 -1 0 0
1146 191 14 0 7.1971864664408765 22.41974768580254 10.588130197233706 0 0 0
269 45 14 0 15.189870758411667 22.94434240286209 15.698714055507397 -1 0 0
888 148 14 0 3.6751353668794526 22.929555595560576 4.578861679853277 0 0 0
806 135 14 0 7.993698636260813 22.8920177587715 20.372287546320194 0 0 0
1158 193 14 0 10.621050724828756 23.276292513581936 5.709257610493199 0 0 0
266 45 14 0 18.63876871479854 24.29050105613036 7.771796128946875 -1 0 0
268 45 2 0 16.61303454916031 24.32616995620676 13.131545448226209 -1 0 0
708 118 14 0 1.604665892777624 24.466356844666006 10.578288073956529 0 0 0
805 135 14 0 10.54297822248304 24.591846295116035 20.585618030018352 0 0 0
265 45 14 0 16.39991461417293 24.742477496853855 5.55669864571373 -1 0 0
182 31 14 0 16.534007023079738 25.22573009466058 21.215131667163565 -1 -1 0
984 164 14 0 7.206918813033078 24.739759564849802 0.2222910805957075 0 0 0
714 119 14 0 1.8644641292421162 25.372856774761686 20.30785676396193 0 0 0
5 1 14 0 13.131387065541137 25.957091298994396 0.7543687575703506 -1 -1 0
354 59 14 0 11.85974267382573 26.357520877170042 10.986647477970324 -1 0 0
900 150 14 0 7.786129090245462 26.375243508785857 15.223010580597082 0 0 0
712 119 2 0 2.4708782704290453 26.062432032373476 15.095325947155898 0 0 0
713 119 14 0 1.77272358751265 26.48650940205221 18.038170730118228 0 0 0
893 149 14 0 6.050133016107116 27.742898749046798 7.795722190648998 0 0 0
983 164 14 0 7.556974690817819 27.26312943964317 1.8182828738011179 0 0 0
93 16 2 0 12.94810819029344 27.607084209008004 16.712556107917152 -1 -1 0
981 164 2 0 2.1899794763039546 27.71604096728486 1.9811423226011986 0 0 0
892 149 2 0 2.825576887767405 28.033467389741798 6.343392587621502 0 0 0
353 59 14 0 14.106772102634615 27.555689046735594 10.52994948267124 -1 0 0
894 149 14 0 6.689407738406525 29.032621480447954 10.240222414529299 0 0 0
899 150 14 0 7.185947020537873 28.696726865640393 16.950891948698462 0 0 0
92 16 14 0 16.06884536339193 29.507362561668025 16.415790945177815 -1 -1 0
180 30 14 0 11.387850459115837 29.748198303743823 5.612547005855368 -1 0 0
982 164 2 0 5.218469042901807 29.45575968457649 3.0907062176487434 0 0 0
178 30 2 0 16.712206579034437 29.087024127686476 2.6686454183482082 -1 0 0
1179 197 2 0 11.422776327705536 39.239935308834944 14.066777293555463 0 -1 0
1083 181 2 0 8.531473757474892 38.18406434544806 8.676613578320293 0 -1 0
1000 167 2 0 10.083512286234427 36.76592128051368 16.886964783769265 0 -1 0
1084 181 2 0 10.704165341537658 36.47162036473449 10.576466739671643 0 -1 0
999 167 2 0 8.247037297634412 36.26792770660146 13.834092601622379 0 -1 0
1001 167 14 0 8.928945665950296 34.39152223961604 18.81093704449915 0 -1 0
998 167 14 0 5.591262202055948 34.45381090547387 12.915505445994624 0 -1 0
897 150 2 0 4.006315367060532 34.14929520921417 18.780211666388993 0 0 0
1085 181 14 0 11.298069580914397 33.026501504532085 10.631833599812033 0 -1 0
1086 181 14 0 11.169358198709064 31.840727909555355 13.870650860506203 0 -1 0
898 150 2 0 5.029083008785303 31.060325040148236 17.128362321128026 0 0 0
94 16 2 0 11.739457739543992 29.5418944362896 19.423069155363788 -1 -1 0
1002 167 14 0 8.620908878938126 33.48983962235158 21.21667955750235 0 -1 0
802 134 2 0 4.212769931313541 30.169184314191686 21.407765488135702 0 0 0
1178 197 14 0 14.412508636879654 37.12765580979715 13.93355520857762 0 -1 0
205 35 14 0 14.829444422489901 34.388832203730054 19.531960156527248 -1 -1 0
206 35 14 0 15.72869749898881 37.52635142524084 19.850917009252587 -1 -1 0
1177 197 14 0 16.410261650565754 35.09599811038552 13.877862194839732 0 -1 0
997 167 14 0 3.4645339995988516 35.83624727446339 11.438691369893657 0 -1 0
995 166 14 0 6.766386440448144 33.819587384871866 6.711900407490944 0 -1 0
1175 196 14 0 14.891143367103675 35.94232061296747 6.77833861416465 0 -1 0
996 166 14 0 3.7814149628786136 33.200310916075644 6.267236355453612 0 -1 0
1174 196 2 0 12.733900869128359 38.46150640232678 6.669350623000469 0 -1 0
994 166 2 0 9.328707364830144 36.04028641830968 5.3451115989329745 0 -1 0
993 166 2 0 6.493633596163692 38.34752981280326 4.553057618573187 0 -1 0
179 30 14 0 14.055960124901778 30.371924100921465 4.85189380471203 -1 0 0
711 119 2 0 2.6932998260660033 29.37563003697954 13.62687197955172 0 0 0
352 59 2 0 16.796819607188745 29.77738655417046 9.85926699532412 -1 0 0
1176 196 14 0 17.306309895437582 34.55325146276495 8.120665586526785 0 -1 0
844 141 2 0 9.137619539263676 38.73504089846036 1.2875813473154707 0 -1 1
845 141 14 0 12.50329966833663 38.2103211321986 1.1324003319693596 0 -1 1
1080 180 14 0 3.73594511596333 35.76379413601646 0.9695908838686265 0 0 0
90 15 14 0 9.13470328973356 32.96572915262311 1.3166701613885132 -1 0 0
2 1 14 0 16.97239649755058 33.91143235602892 0.706471453765216 -1 -1 0
3 1 2 0 14.131916137343454 32.795245907812784 0.224562319228747 -1 -1 0
309 52 2 0 18.489948470274527 38.823526095950434 10.902723695860686 -1 -1 0
91 16 14 0 18.17458960169958 29.370454245146753 14.889117586761152 -1 -1 0
172 29 2 0 18.688967997955007 26.03515987622243 0.8092262432468311 -1 0 0
267 45 2 0 19.065366414623384 25.987613799659837 10.78698644733197 -1 0 0
181 31 14 0 19.00009264974124 25.320033825384115 19.75315687945335 -1 -1 0
351 59 2 0 18.821453003409026 29.46048320221931 6.788774305433419 -1 0 0
1 1 14 0 19.027696654877293 34.053215887106184 2.4680281197748273 -1 -1 0
801 134 2 0 1.005136275108741 31.152802027122878 19.745384013303724 0 0 0
896 150 14 0 2.9549638148766526 35.398378514438534 21.653526679189792 0 0 0
95 16 14 0 12.569319126180007 29.589843407183007 22.508556322281457 -1 -1 0
202 34 2 0 19.5221905695638 33.11456623524499 17.977095621742553 -1 -1 0
807 135 2 0 7.915598682492477 20.98100878435705 23.250042217638132 0 0 0
207 35 2 0 16.476459582309996 38.09188939498286 23.08133348468648 -1 -1 0
803 134 14 0 6.2593128593256475 28.29393139306144 23.071367048979337 0 0 0
7 2 14 0 17.984821424877232 31.453746572621 23.66890043086438 -1 -1 0
895 150 14 0 2.7422012725795484 37.528617479052336 23.5593557331521 0 0 0
887 148 14 0 1.0443031025402774 21.73385007788177 3.7562881347460717 0 0 0
710 119 14 0 0.9160424353676033 30.584783368202935 11.387126310492153 0 0 0
980 164 14 0 0.18968313495646624 30.154995799528507 1.4519666103817714 0 0 0
183 31 2 0 16.407740729894734 25.177315039563062 24.604911961456846 -1 -1 0
1072 179 2 0 4.607868247215489 20.14955625444239 0.26263952851034844 0 0 0
6 1 14 0 13.865140204675024 23.519275268267403 0.15177466570527542 -1 -1 0
383 64 14 0 38.7179485836157 39.81061326059511 19.792854440818452 -1 -1 0
173 29 14 0 20.308629327521125 23.313428620236227 1.3386263269977552 -1 0 0
201 34 2 0 20.569997975415095 30.06330610107133 19.685734055503783 -1 -1 0
891 149 2 0 39.79615085390653 26.703854918625076 5.616171230447995 -1 0 0
262 44 2 0 20.76301312393151 31.34316687078209 10.101810329863003 -1 0 0
295 50 14 0 26.415718108402082 39.486853017060675 4.484129262337093 -1 -1 0
294 49 14 0 25.412401987553405 39.450961909008576 16.48973511056889 -1 -1 0
886 148 2 0 38.20755790206856 20.308044192977466 4.645219729811774 -1 0 0
700 117 2 0 34.37955984303862 21.223572972627554 12.702178063277845 -1 0 0
429 72 2 0 25.2304066117088 20.047656150492763 16.155050020142586 -1 0 0
258 43 14 0 24.57423483290306 21.28557587074032 7.995716066775824 -1 0 0
707 118 14 0 39.46007766672035 23.10001151387226 9.700821111189232 -1 0 0
348 58 14 0 20.908685188762817 21.344540159979978 12.625666909612242 -1 0 0
616 103 2 0 39.29362881762594 21.075621629913062 17.87435519401695 -1 0 0
706 118 2 0 36.727557667863366 21.92001919909254 9.122048143261377 -1 0 0
800 134 14 0 39.623156195063814 32.47408574222002 16.834344975488385 -1 0 0
257 43 14 0 24.619407648526938 22.021220927220654 5.663516837363841 -1 0 0
428 72 14 0 26.98947481167506 22.21177032300132 13.826456719524401 -1 0 0
427 72 14 0 29.011740370525064 22.488337148342392 12.106383260551198 -1 0 0
799 134 14 0 39.72901219288377 35.21103392951378 16.05913341497542 -1 0 0
709 119 14 0 39.103860414795726 30.077441100738646 9.247430896809568 -1 0 0
705 118 2 0 33.171510146209386 22.836829219551856 8.637294289738213 -1 0 0
256 43 2 0 25.568882928245156 22.914988941739296 2.914628080929184 -1 0 0
608 102 14 0 34.492439777052034 22.853718358326063 17.712005663700452 -1 0 0
609 102 2 0 36.509257006382 23.150762081187615 20.413906142453946 -1 0 0
615 103 2 0 38.717750915316174 23.186037996765524 15.199144548746911 -1 0 0
439 74 14 0 25.175420752737438 23.842320999265247 19.530414714839722 -1 0 0
347 58 14 0 21.33111400220339 23.533546619667252 14.71964298031209 -1 0 0
840 140 14 0 30.260904952595986 23.543677519923317 0.8034530517284003 -1 -1 1
203 34 14 0 21.326474481962208 35.687293373941316 19.34268104597573 -1 -1 0
607 102 14 0 32.08849192601753 24.39478009899663 17.06236928963438 -1 0 0
979 164 14 0 38.38492877113629 31.459054196950664 3.1311025251728695 -1 0 0
990 165 14 0 38.592958319349975 35.708900345571514 7.385652454206033 -1 0 0
704 118 14 0 31.198001269755263 24.896745651163577 6.933889893232657 -1 0 0
889 149 14 0 35.799723866326474 24.982239765516663 2.6120355456095434 -1 0 0
890 149 14 0 36.67802299968084 25.898028199485758 5.180096339753173 -1 0 0
346 58 2 0 22.917680518645994 26.18726788341056 15.283185256162344 -1 0 0
703 118 14 0 29.108555637668925 25.960639144648166 6.342591156414795 -1 0 0
613 103 14 0 34.80831575755755 26.425704585867752 11.923606431703485 -1 0 0
614 103 14 0 37.15184491571315 26.605828226836273 14.180311698865113 -1 0 0
345 58 2 0 26.533462067818157 26.95031980667821 15.54630000005419 -1 0 0
264 44 14 0 23.90137973648191 26.752679669506332 9.889254549684296 -1 0 0
349 59 14 0 23.783404047165003 27.596622244779702 3.780878902259437 -1 0 0
529 89 14 0 36.1715383658897 28.368574963237158 20.26397249695937 -1 0 0
344 58 14 0 28.640257134887335 28.4565093672548 13.873428333882364 -1 0 0
619 104 14 0 29.33448017446618 28.547914467980778 19.914935840343215 -1 0 0
343 58 14 0 29.401804414023555 28.900935474922797 11.700807067256914 -1 0 0
350 59 14 0 21.344280796322835 28.48061118771269 4.449118694738227 -1 0 0
263 44 14 0 23.255013201124097 29.387010928899056 11.221346816830629 -1 0 0
989 165 14 0 37.299509035885215 35.81131923362527 10.229414679912603 -1 0 0
297 50 2 0 21.665215389694616 36.93927956079072 5.58143432691316 -1 -1 0
300 50 14 0 22.10097919951108 35.24542464387115 13.28966721777596 -1 -1 0
261 44 2 0 21.93600610929548 32.9041676768914 6.794076555060963 -1 0 0
298 50 2 0 23.746492882012394 37.83324871127999 8.313626199315921 -1 -1 0
299 50 14 0 23.235932611705852 36.16950745851104 11.083286442639654 -1 -1 0
293 49 14 0 27.94426811733073 38.14252319930055 15.36021882610159 -1 -1 0
988 165 2 0 34.46232069075486 37.52208375816247 10.31998866324978 -1 0 0
373 63 14 0 34.47125307065718 32.24633351478465 13.814376821662401 -1 -1 0
463 78 14 0 34.246444066314474 38.066883680425555 15.697665529572454 -1 -1 0
289 49 14 0 29.154164810546895 37.28463713549831 9.371516849589604 -1 -1 0
464 78 14 0 33.301772558181284 37.34687071828143 18.643282052683233 -1 -1 0
290 49 14 0 29.89893167002161 34.905685039810805 10.763576359850472 -1 -1 0
292 49 2 0 29.178218400590772 34.672370462054104 15.556381594671695 -1 -1 0
376 63 2 0 29.58275167823019 33.9426003697604 19.52007592735889 -1 -1 0
291 49 2 0 27.478137106718403 33.58518266887957 12.67191050789536 -1 -1 0
199 34 14 0 25.36391766289228 32.11005548708505 17.030277105996724 -1 -1 0
374 63 14 0 33.24218411000686 31.313540929608337 16.242538719157903 -1 -1 0
375 63 2 0 33.033395248921764 32.411437332713795 19.46266314118045 -1 -1 0
200 34 14 0 23.451961090011338 29.925888163403506 18.656496122859313 -1 -1 0
377 63 14 0 27.897037177816866 36.23187496229526 21.0683962339969 -1 -1 0
985 165 14 0 33.22790454172702 30.571727058994256 7.755025741912011 -1 0 0
259 44 14 0 26.99747235954055 31.58646990136936 6.719473598383157 -1 0 0
987 165 2 0 33.20377229683375 36.09731663960803 6.630204774634583 -1 0 0
986 165 14 0 33.00036944029732 32.81720717999771 6.095096415946152 -1 0 0
260 44 14 0 25.29878898555085 33.51743691147795 6.12830684322127 -1 0 0
296 50 14 0 23.64267541260957 38.332617045211684 2.9764374045224646 -1 -1 0
742 124 2 0 33.32175279369737 38.41781387053284 2.664264069025198 -1 -1 1
743 124 14 0 35.73899798714864 36.54011390560938 2.0779530453429103 -1 -1 1
750 125 14 0 29.40609424317561 29.246561403336077 1.5182615504768002 -1 -1 1
751 126 14 0 29.651508138474796 35.329849067254656 1.7990145883852218 -1 -1 1
749 125 14 0 32.66345922374438 29.940861197224287 0.968252021035302 -1 -1 1
744 124 14 0 37.678014712660236 36.74773017881696 0.16712359830572154 -1 -1 1
204 34 14 0 21.680197417190676 37.92807529552147 21.316732214480723 -1 -1 0
625 105 14 0 36.99348082343027 34.25643998315142 22.069659658289062 -1 0 0
465 78 2 0 33.113040349753376 38.28914062588564 21.937126846882766 -1 -1 0
440 74 14 0 25.325119034152916 21.992776165370476 21.750554519045316 -1 0 0
620 104 14 0 28.154389626151026 28.66323416247795 22.299477153485928 -1 0 0
530 89 14 0 35.341910838219256 28.307465079448452 22.90708505199587 -1 0 0
523 88 14 0 30.90048962968007 23.443591224212863 22.671146423768274 -1 0 0
378 63 14 0 28.01528423652401 38.45531531791503 22.767567404271734 -1 -1 0
610 102 2 0 38.02737195185513 23.770374906032284 23.349025295169653 -1 0 0
271 46 14 0 22.471545992146893 27.295546890386728 24.306510171797854 -1 -1 0