          12
Energy of minimum      1=    -11.1509091359219     first found at step      560 after               314174 function calls
LA        -2.0271095738       -5.2516011919        2.6041756888
LA        -4.3672804782       -3.7563583392       -0.0014298767
LA        -3.6436063093       -0.3452496552       -1.5109178005
LA        -1.7055783900        2.9153733406       -1.6944168546
LA         1.4363499736        4.9881857318       -1.2068444567
LA         4.9295980158        3.5822500874       -0.7002024814
LA        -2.4032430995        1.9191314668        4.2912347095
LA         1.1730571689        1.1667166553        5.3344518405
LA         3.0167087961       -1.2375828694        3.0286264956
LA         1.1014759974       -1.0336824611       -0.2395766472
LA         1.9726961161       -2.5707112029       -3.5797900161
LA         0.5169317829       -0.3764715623       -6.3253106013
          12
Energy of minimum      2=    -11.0530057968502     first found at step      721 after               394100 function calls
LA         5.8291164372        1.2955144711        0.0380019926
LA         4.3303063558       -0.9182040939        2.7344101228
LA         0.8617399812       -1.0649484077        4.2709417950
LA        -1.9116184748       -0.3951866182        1.7733033096
LA        -5.2128932442       -0.3872513234       -0.0763844935
LA        -5.0456043238        0.1740625794       -3.8327322796
LA         0.1366873879        5.1288329110        3.0552902161
LA        -0.4107095058        5.1390706843       -0.7020825615
LA         0.7272691388        2.7760929215       -3.4470337865
LA         0.7440432206       -0.8621302066       -2.3786952271
LA         0.5437030364       -4.6408237886       -2.3446097554
LA        -0.5920400092       -6.2450291289        0.9095906676
          12
Energy of minimum      3=    -10.7862881731348     first found at step      653 after               354784 function calls
LA         3.1419769452        2.7079851626       -3.5007999688
LA         2.9940748017       -0.9292403716       -4.6212967335
LA        -0.6691711563       -1.9939052669       -4.4893931808
LA        -2.0970497612       -0.0676378952       -1.5354011147
LA        -5.4459952205       -0.9773402605       -0.0155056541
LA        -5.2195729692       -1.4510189594        3.7514842066
LA        -0.0063782655       -5.8532285299        0.2204760025
LA         1.7342132436       -3.1580544073        2.2454491891
LA         4.4442649725       -0.5915929692        1.5446358629
LA         3.5413000205        2.9310848155        2.6685493095
LA        -0.1453445596        3.7395750657        3.1177943688
LA        -2.2723180511        5.6433736161        0.6140077126
          12
Energy of minimum      4=    -10.7358471149150     first found at step      565 after               314702 function calls
LA         0.0704754392        5.0722131197        4.3301820895
LA        -1.3905355645        1.7608168491        5.4767288250
LA        -0.4264655352       -1.8665870279        4.9002925703
LA        -0.2838865394       -2.6017246777        1.1820491901
LA         0.5536020110       -4.6526343201       -1.8824953466
LA        -1.2888136471       -3.9979373673       -5.1390149564
LA         5.1451771330       -0.2700555336        2.5098700030
LA         4.1150195760        1.6394755712       -0.6051338146
LA         2.7792142903        0.6986101353       -4.0355879822
LA        -0.6885829345        2.1205247460       -4.6911503122
LA        -3.0214588154        2.2864693388       -1.6980968493
LA        -5.5637454135       -0.1891708334       -0.3476434167
          12
Energy of minimum      5=    -10.7194861814514     first found at step      620 after               343196 function calls
LA        -1.3530974643        5.2050798143        1.2030471332
LA        -1.1032701142        2.0331216402        3.2745399199
LA        -4.2349850719       -0.1167571261        3.4289629894
LA        -3.8628199808       -3.6942304448        2.1884181109
LA        -0.4801624092       -4.7245236576        0.7996151489
LA         1.5415213972       -5.5076135752       -2.3169326041
LA         5.5801784203       -0.7720389089        1.9905482488
LA         5.8329470369        2.8921049625        0.9770814959
LA         3.6159580445        3.5385563420       -2.0567945626
LA         1.2593484468        0.5606499384       -2.2484978279
LA        -1.7698750431        0.6827259418       -4.5173443496
LA        -5.0257432622       -0.0970749266       -2.7226437027
          12
Energy of minimum      6=    -10.7084904801702     first found at step      811 after               433297 function calls
LA         1.7465020125       -3.6068027146        4.3453836573
LA        -0.2569809609       -4.4465669167        1.2285815313
LA        -0.7249029894       -1.8204475013       -1.4580605422
LA         0.5944266140       -1.8886091823       -5.0216219420
LA         0.6083103884        1.7293727528       -6.2209518132
LA        -1.5818670132        3.8998992311       -3.9898875387
LA         5.6149219157       -1.0468453758       -1.5226325242
LA         4.1687302397        1.9736892462        0.2713863063
LA         0.5526976886        1.9293107187        1.3920285853
LA        -0.7718497521        2.0007682093        4.9535892630
LA        -4.3199969624        0.6170313843        4.7976987255
LA        -5.6299911808        0.6592001484        1.2244862915
          12
Energy of minimum      7=    -10.6982256267601     first found at step        0 after                   44 function calls
LA         4.0272446094        3.2225116120        1.6414056415
LA         4.4950785459       -0.5461804500        1.5300909575
LA         2.2336280280       -2.4924192512        3.8868026600
LA        -0.9355654469       -0.5243428781        4.6157918645
LA        -2.8867441565        1.2539542608        1.8898198109
LA        -5.2617330290        0.4206610746       -0.9506076830
LA        -1.0706165980        6.8358544901       -2.3183945864
LA         0.0075160589        3.9946706560       -4.5986428923
LA         2.2489449615        0.9948725306       -3.9773600166
LA         0.1560693250       -1.8854947650       -2.6539826546
LA        -0.4476599752       -5.2745976146       -1.0672011695
LA        -2.5661623231       -5.9994896651        2.0022780679
          12
Energy of minimum      8=    -10.6768215500331     first found at step        1 after                  138 function calls
LA         6.1430183791        0.9229049546       -0.5181097293
LA         4.8093939868        0.1917582899        2.9631548533
LA         1.7051971805       -1.5378490049        4.3030310683
LA        -1.4413794868        0.1179846776        2.9716758187
LA        -5.1167608633        0.4413283332        2.0951809224
LA        -6.0308099119       -0.4084133217       -1.4980200922
LA         0.3397707500        5.6951259574        1.3405733095
LA        -0.2289255486        3.9975044623       -2.0046561645
LA         1.3249231662        1.6346438657       -4.5429866882
LA        -0.6717194823       -1.6135227802       -4.5099752302
LA         0.5427318606       -3.6642845777       -1.5505565276
LA        -1.3754400300       -5.7771808560        0.9506884597
          12
Energy of minimum      9=    -10.6505699062229     first found at step       36 after                11862 function calls
LA         5.7189075839        2.7546197760       -0.3891622253
LA         4.5862645569        3.0000617554       -4.0182470783
LA         1.3336675822        1.0904824934       -4.5650371785
LA         0.8852711442       -1.0118117934       -1.4253540862
LA        -1.1964837655       -4.1467534308       -1.8122933928
LA        -2.7740961494       -5.7844786637        1.2322126047
LA         3.5534428087       -2.9385990125        3.7778418791
LA         1.0327192035       -0.2129449898        4.5955224450
LA        -2.6384203675       -0.1556651882        3.6402293872
LA        -5.1452744812       -0.0316266263        0.7815304730
LA        -4.0142948567        2.6243451740       -1.7035466275
LA        -1.3417032593        4.8123705059       -0.1136962004
          12
Energy of minimum     10=    -10.6208113331457     first found at step      200 after               110758 function calls
LA        -1.4682421592        3.2265640853       -3.4553167955
LA         2.2802375156        3.7886468229       -3.2768738826
LA         4.3934700784        4.5652108298       -0.2149923339
LA         4.4941179479        1.4644515638        1.9999374084
LA         1.3379306331        1.5217569399        4.1280504948
LA        -0.7793444868        4.6312696063        3.5955020872
LA        -5.5189855762       -2.7889629548       -2.0790688140
LA        -4.8907061341       -1.1290637712        1.2872380956
LA        -2.4886250494       -3.2637632608        3.3342416283
LA        -0.4117348339       -5.3558781860        0.9213043892
LA         1.8730517908       -3.2313634021       -1.2547257860
LA         1.1788302738       -3.4288682731       -4.9852964915
          12
Energy of minimum     11=    -10.6068765704566     first found at step       12 after                 1137 function calls
LA         2.8878882190       -0.3127896187        4.8007733747
LA         3.8478619929        0.1881924944        1.1581030691
LA         2.7833370919        3.5569108155       -0.2632058742
LA         1.3696916980        5.5322706793        2.6864134628
LA        -2.3057840186        4.5174449874        2.8771946512
LA        -3.6163011679        4.5411904292       -0.6965488113
LA         0.2783739796        0.3341285579       -5.1195414767
LA         1.1389047798       -3.3539340618       -4.8171582918
LA         2.2110505172       -5.0935270307       -1.6156554645
LA        -0.0192768416       -4.8180334717        1.4470382638
LA        -3.0585239247       -2.5546240772        1.2166309270
LA        -5.5172223256       -2.5372297036       -1.6740438301
          12
Energy of minimum     12=    -10.5967111272161     first found at step      206 after               111313 function calls
LA        -1.2484259756        4.7893520409        1.6861103085
LA        -3.6683131963        1.9028029297        1.1635247528
LA        -4.0476652453        0.0235786576        4.4618981595
LA        -1.0125406595        0.8112006962        6.6386266881
LA         2.0343686236       -0.9040296695        5.1112431406
LA         0.8220032808       -3.7052850749        2.8373831684
LA         4.2777570696        1.3483200850       -1.4316000469
LA         4.9401014575       -2.0030756888       -3.0885237326
LA         1.8870583871       -4.2696114685       -3.2755549719
LA        -1.1861863243       -2.0822799176       -2.7456388758
LA        -1.7193232482        0.1738431794       -5.7535353669
LA        -1.0788341694        3.9151842305       -5.6039332239
          12
Energy of minimum     13=    -10.5822783494948     first found at step      240 after               134490 function calls
LA         3.4162742329       -3.1107109100        2.2744854495
LA         0.4349558637       -5.1193789947        1.0355972044
LA        -3.0394738595       -4.4620840082        2.4214377294
LA        -4.2517133967       -0.9366092594        3.1596123201
LA        -1.8109185408        1.8642207992        2.3821369460
LA        -2.0715946024        4.5749015733       -0.2552347476
LA         4.9324175674        4.1698921245        3.2463803436
LA         5.3106491029        3.5165692190       -0.4756543923
LA         2.9559233635        2.9457078628       -3.4054180223
LA         1.1494428732       -0.3221223282       -2.7037799908
LA        -1.8982463749       -1.1997094859       -4.7735471104
LA        -5.1277162292       -1.9206765924       -2.9060157295
          12
Energy of minimum     14=    -10.5580457792697     first found at step       60 after                34532 function calls
LA        -5.2562417525        0.9738647567       -1.5534728312
LA        -3.4801176849        4.0859180524       -2.8406783842
LA        -1.0975646323        2.9381218672       -5.5950169425
LA         0.0484689961       -0.5723427364       -4.6116065546
LA         2.6181493283       -0.0880151418       -1.8444524581
LA         3.6854897673        3.5122145705       -1.2865553088
LA        -2.1574984404       -5.5915965822       -1.2285738969
LA        -1.5902396497       -4.2470486749        2.2930549555
LA         2.1565874807       -4.1740850178        2.9718456343
LA         4.2216468808       -1.1271562787        3.9322039004
LA         2.0280802644        1.4639729392        5.6365656738
LA        -1.1767605579        2.8261522457        4.1266862122
          12
Energy of minimum     15=    -10.5352321866899     first found at step      668 after               365187 function calls
LA        -1.3910636793       -1.2495779222       -4.9343053715
LA         0.6442251845        1.9642686289       -4.9873400940
LA         3.7655459530        1.5200751771       -2.8412531088
LA         2.9664429788       -1.3750355648       -0.5039605816
LA         5.2594368971       -2.0752717714        2.4304857656
LA         3.6099610723       -1.9206720346        5.8549977102
LA        -1.1619566866       -5.5802585328        1.1082665361
LA        -2.6576491903       -2.2728307541        2.2305284456
LA        -5.2433109756       -0.7098930950       -0.0764430947
LA        -4.4691807690        2.7766132423       -1.3843282588
LA        -2.4027013339        4.9346485947        0.9616534207
LA         1.0802505493        3.9879340318        2.1416986311
          12
Energy of minimum     16=    -10.5143007983404     first found at step      136 after                67878 function calls
LA         0.7326217754        0.2884177774        6.5866582148
LA        -2.4518454749       -1.7933032785        6.5247454086
LA        -2.6466725279       -3.8966963268        3.3518410775
LA         0.2659564582       -2.8360045799        1.1469274689
LA         0.0429030518       -3.8313033316       -2.5010363563
LA        -1.1002072660       -1.7019776446       -5.4321407483
LA         5.2377143693        0.6368702951        0.7948314817
LA         5.0103151158        1.5664870445       -2.8768869710
LA         2.4027334642        3.4210876328       -4.9193883796
LA        -0.9113718735        4.1991389640       -3.2354377029
LA        -1.6728658230        2.9714783444        0.2827924618
LA        -4.9092812693        0.9758051031        0.2770940447
          12
Energy of minimum     17=    -10.4652778816487     first found at step        5 after                  510 function calls
LA         2.1756924864        5.3082659097       -1.9013173783
LA         0.6513591502        3.1771855190       -4.6662953620
LA        -3.1173243856        3.7802616254       -4.6501106181
LA        -4.1200094190        5.1250781855       -1.2206276020
LA        -3.7425812695        2.3274291802        1.3492748372
LA        -3.7086000114       -0.9725569701       -0.5420913002
LA         2.5797138485       -3.7782914448       -2.6914979061
LA         4.3897997262       -1.4493762131       -0.2964004341
LA         2.0432869027        0.4693675551        1.9869597774
LA         0.0658226059       -1.5294136899        4.5413915096
LA        -0.2615676506       -5.2898642253        4.0922545151
LA         3.0444080161       -7.1680854316        3.9984599616
          12
Energy of minimum     18=    -10.4254701139644     first found at step      100 after                55577 function calls
LA         1.7849441012        5.7876195244       -3.2100063528
LA        -0.9742017809        5.7370136813       -0.5848854776
LA        -1.4849658028        2.1926582484        0.6727070867
LA         0.6822474376       -0.0226630170       -1.5490935026
LA        -1.2235941326       -0.8152361634       -4.7362897201
LA        -4.8655600072       -0.0223743241       -3.9449542301
LA         4.7251089461        1.7717249807        2.4163658840
LA         2.3742249717       -0.0832801877        4.7540807253
LA        -1.3276920711       -0.9072248775        4.5113897868
LA        -2.5052629972       -2.6084102831        1.3159647302
LA        -0.4216166661       -5.7189944805        0.6606113689
LA         3.2363680013       -5.3108331015       -0.3058902987
          12
Energy of minimum     19=    -10.4015621420823     first found at step      861 after               464977 function calls
LA         3.3541415334        0.4953732753        4.5602815361
LA         1.3114809160        3.6679691930        5.0743792376
LA        -2.3541306759        2.9580897548        4.2985048691
LA        -2.4464023426       -0.2977687311        2.3351633550
LA        -5.4651859116       -1.2453326350        0.2473898605
LA        -4.9300044622       -1.7186379034       -3.4872187684
LA        -1.8845749418        4.8835122816       -1.5294066527
LA         0.9271053240        2.4116515144       -2.1441415201
LA         4.1961541298        0.5532474764       -1.5786114989
LA         4.5441916099       -2.1769295727       -4.2199610090
LA         1.7601667366       -4.7204795475       -3.6404398666
LA         0.9870580844       -4.8106951056        0.0840604574
          12
Energy of minimum     20=    -10.3521838958436     first found at step       80 after                44724 function calls
LA        -2.2553029501       -2.2846901554        3.1893553709
LA         1.2437542131       -3.6556404921        3.8039850423
LA         3.1053814586       -1.0408720833        5.8734983279
LA         1.5317333029        2.3589447394        5.1259182759
LA         2.4217367846        3.2631227485        1.5257426524
LA         5.7087766279        1.5295780882        0.6956130870
LA        -1.9701575560       -4.2163442600       -3.8490706755
LA         1.4256876480       -2.5896358713       -3.3767427284
LA         1.6257854461        1.1028471716       -4.2717609950
LA        -1.9125892538        2.2303886370       -5.1293313309
LA        -3.9047985351        2.7327700042       -1.9274396133
LA        -7.0200071862        0.5695314731       -1.6597674133
          12
Energy of minimum     21=    -10.3340704215864     first found at step       20 after                10473 function calls
LA        -2.5693102037       -4.6967719611       -1.5443349201
LA        -0.0055554964       -3.2287783589       -3.9412309114
LA         3.4405390370       -4.5922290691       -3.0367327615
LA         3.3327407846       -5.8251233463        0.5737418948
LA         3.1077400641       -2.7972234701        2.8841348033
LA         4.1392905723        0.3006563736        0.9270022530
LA        -4.2395989366        5.6958801014        3.5217223978
LA        -1.6929474078        3.0183401560        4.4618688558
LA        -2.0893072891        0.2063697638        1.9340003460
LA        -3.5055210757        1.5113414977       -1.3445418816
LA        -1.0613695642        3.8840769831       -3.0257171572
LA         1.1432995156        6.5234613299       -1.4099129190
          12
Energy of minimum     22=    -10.2851913337258     first found at step      227 after               122218 function calls
LA         2.6511559151        0.0337879530        4.8656865223
LA         4.1479571926        0.7182488477        1.4414681225
LA         2.8599950210        3.8747031626       -0.2504345053
LA         1.6063342926        6.1776703047        2.5187779715
LA        -2.0590964618        5.3631346839        3.1534934827
LA        -3.2558207239        2.4408178746        1.0378150655
LA         0.4603450469        0.3382346299       -4.8109327503
LA         1.8531385193       -3.1860639054       -4.5292033634
LA         2.1614407833       -4.5775023398       -0.9993624058
LA        -0.7726092489       -3.1893677193        0.9894336139
LA        -4.0010871988       -4.7969912509       -0.1946440119
LA        -5.6517531375       -3.1966722410       -3.2220977417
          12
Energy of minimum     23=    -10.2384133424301     first found at step      160 after                86646 function calls
LA         1.9736289487       -2.3994650147        2.8418478250
LA         0.6079170772       -0.1483603278        5.5837298155
LA        -0.7315837186        3.1261514613        4.1781913131
LA        -0.2631814761        3.3481786136        0.4119238649
LA         3.3461431787        3.9268467998       -0.6097956898
LA         5.5932358027        4.1459206708        2.4539705378
LA        -4.9205665376       -0.5921614438        0.8887332182
LA        -4.5501174734        0.2828623773       -2.7873169486
LA        -1.1232847188        1.2418810852       -4.1229824681
LA         1.5031071767       -1.3330124361       -3.1611237732
LA         0.5037923394       -4.9022701275       -3.9860609754
LA        -1.9390905989       -6.6965716582       -1.6911167194
          12
Energy of minimum     24=    -10.0829239620743     first found at step       40 after                21947 function calls
LA        -3.2798098299        5.2983774749       -5.0583921794
LA        -0.8597138576        2.3967957667       -5.5264779780
LA        -2.1554502266       -0.6917251921       -3.7276140506
LA        -4.4025192136        0.0705383353       -0.7568398958
LA        -3.4380494644        2.7637432508        1.7450695723
LA         0.1679336822        3.9280294408        1.5076844011
LA         0.8833031896       -1.3946668920        6.4182987646
LA        -0.9111802305       -3.6136653704        3.9020614126
LA        -0.2618740941       -2.6105245681        0.3040731635
LA         2.5475893050       -0.8520791202       -1.5508139916
LA         5.6082784194       -0.8776871001        0.7129923245
LA         6.1014923205       -4.4171360256        2.0299584568
          12
Energy of minimum     25=    -10.0618906686515     first found at step      120 after                66444 function calls
LA         3.1945004250       -0.1367637421       -4.4932114974
LA         2.1294722266        3.4943509749       -4.0599499940
LA        -0.7512126746        4.2223836628       -1.6821061520
LA        -3.4423205128        2.0579270691       -0.0676713931
LA        -3.9718089220       -0.9904418493       -2.2948685721
LA        -4.0803245750        0.1224625835       -5.9318743236
LA        -2.7483197803       -1.8155921070        5.1609011382
LA        -1.1163021017       -4.7284272557        3.3175474509
LA         1.1512167682       -3.3451546325        0.5776821098
LA         0.9481206363        0.4332008749        1.0038661445
LA         3.7649945767        1.7827474104        3.1282523158
LA         4.9219839338       -1.0966929890        5.3414327730
