LAMMPS data file via write_data, version 10 Mar 2021, timestep = 97154680

600 atoms
40 atom types
500 bonds
1 bond types

0 40 xlo xhi
0 40 ylo yhi
0 75 zlo zhi

Masses

1 131.2
2 57.05
3 128.2
4 101.1
5 156.2
6 71.08
7 115.1
8 129.1
9 163.2
10 99.06999999999999
11 113.2
12 128.1
13 186.2
14 147.2
15 87.08
16 137.1
17 114.1
18 97.12
19 103.1
20 113.2
21 131.2
22 57.05
23 128.2
24 101.1
25 156.2
26 71.08
27 115.1
28 129.1
29 163.2
30 99.06999999999999
31 113.2
32 128.1
33 186.2
34 147.2
35 87.08
36 137.1
37 114.1
38 97.12
39 103.1
40 113.2

Atoms # full

506 85 6 0 10.792447904163865 13.389809330872728 17.896300241576654 -79 21 34
507 85 2 0 14.35091571225694 12.898449622399355 19.024700322145392 -79 21 34
508 85 2 0 14.235730118597017 9.435779158561214 17.303853010268206 -79 21 34
509 85 6 0 15.624022813908665 8.928076776312807 13.599081708203558 -79 21 34
306 51 6 0 34.29265853830987 11.33535154807257 10.915038859393105 -37 -42 23
305 51 6 0 36.45419969616665 13.200704339637973 8.612403012950306 -37 -42 23
304 51 2 0 39.80507710107862 11.892658117431845 6.9416871617522204 -37 -42 23
145 25 6 0 3.560234339762599 34.59876295094249 9.528663657814244 -39 -33 11
303 51 2 0 3.545474409956598 12.912355329637437 6.334147585954555 -36 -42 23
302 51 6 0 6.6440011269325705 14.324419146013227 8.250190896760705 -36 -42 23
211 36 6 0 18.33581132272466 10.919676422813547 6.615195509024854 -21 5 7
301 51 6 0 6.54199824399715 15.25167303724273 11.87325957951139 -36 -42 23
140 24 6 0 7.592992341686287 37.28586039908215 7.89557163572703 40 -6 -3
510 85 6 0 12.339745644589875 7.101110938333307 12.171703241911924 -79 21 34
43 8 6 0 37.006405541385 27.363458736997465 15.15506491092131 0 -45 -12
85 15 6 0 8.684535728526864 17.081848188488724 22.29417688707562 12 -25 4
142 24 2 0 10.992858735290444 39.768047499324595 7.329923734252713 40 -6 -3
139 24 6 0 4.535272696972082 37.16405120363601 5.087088052198538 40 -6 -3
587 98 6 0 6.2648611488002315 38.53818643537163 23.21396338846708 -4 35 -4
600 100 6 0 39.93276199742693 14.89071956544999 19.689354707234763 36 -14 14
505 85 6 0 9.445445790845673 9.852345500002794 18.71159750019409 -79 21 34
81 14 2 0 20.947076313260073 7.806486372651345 3.1826091696011853 24 -16 10
82 14 2 0 20.616775282096402 4.528610445857709 1.1790726893844716 24 -16 10
83 14 6 0 19.462027327986426 7.379303581224292 73.98487855420933 24 -16 9
585 98 2 0 10.077961171602546 3.4951708233509295 26.390800199695992 -4 36 -4
586 98 2 0 7.799647048788266 0.716943730950808 26.05345219545952 -4 36 -4
88 15 2 0 14.578358424031371 18.291093667743027 24.039511318211275 12 -25 4
87 15 2 0 13.316715147095744 14.782444568214117 23.788210303638763 12 -25 4
86 15 6 0 9.900828734461614 15.05704687293067 25.46580720418546 12 -25 4
144 24 6 0 15.369817264516781 39.21509035096506 10.745039836345976 40 -6 -3
143 24 6 0 13.788592008606733 1.758512320553999 8.940530236586909 40 -5 -3
237 40 2 0 20.540070960224302 2.563462345401794 13.527956782595496 -10 -4 28
238 40 2 0 21.44115054365914 38.749782623430285 14.12812833002774 -10 -5 28
50 9 6 0 5.949114202615288 37.90080605240433 71.6377369802373 -53 -27 6
49 9 6 0 4.5968343991935905 35.29660473864712 74.02261684800557 -53 -27 6
51 9 2 0 3.495259526845923 37.95427058519146 69.1171282394481 -53 -27 6
599 100 6 0 38.71426436464141 12.609454503732858 22.586719458896646 36 -14 14
84 14 6 0 16.761273753810304 5.560707186083169 72.15555740410429 24 -16 9
256 43 2 0 8.038156530203446 23.190549243484963 1.6669975835529327 -19 -2 -8
35 6 6 0 1.7907877496534386 16.49615742112282 3.762857329534372 -9 2 -3
89 15 6 0 13.027615984586765 21.81762630539883 23.402340416972514 12 -25 4
97 17 6 0 2.701818007541516 22.614881890070265 7.944249440835948 -37 -48 -1
90 15 6 0 9.140799271372703 22.28956647462982 24.249562560303985 12 -25 4
257 43 6 0 8.587107892995508 19.694108157721566 0.8303459617074275 -19 -2 -8
34 6 2 0 37.81292287923262 16.598829158822284 3.99724850135593 -10 2 -3
182 31 6 0 11.797018398165328 21.171587833082153 13.794720465994697 -13 -6 6
315 53 2 0 6.484663205651247 10.546982862881706 14.864096024527605 -42 4 7
588 98 6 0 4.035109106886376 1.9942903560549596 22.92563070811918 -4 36 -4
314 53 6 0 6.419081908579347 8.787745363020443 11.792907513624586 -42 4 7
316 53 2 0 4.168537262338235 8.124200689951653 16.74397300825678 -42 4 7
317 53 6 0 3.700409516718861 9.272370509031884 20.388119931491847 -42 4 7
240 40 6 0 26.679354779716245 2.664798536236716 18.15641702153891 -10 -4 28
313 53 6 0 4.064364491337818 5.837490903916375 11.16698160735594 -42 4 7
239 40 6 0 24.412219576908498 0.21107117258128896 16.016717635432574 -10 -4 28
583 98 6 0 9.318141144482391 4.087310441253863 20.22697033733177 -4 36 -4
584 98 6 0 11.541271080578412 5.603343989920227 23.058025114488604 -4 36 -4
266 45 6 0 14.395523266434564 1.5630903306842605 25.7996771783469 -3 9 -18
212 36 6 0 15.143646791212626 11.257777727308241 8.169095215287802 -21 5 7
53 9 6 0 1.5292327730558235 2.5828989734200563 74.35905922512575 -53 -26 6
54 9 6 0 1.0095302390609848 3.823396117159716 3.111275754524866 -53 -26 7
48 8 6 0 32.47960838068465 19.815044817801 7.175927637005131 0 -45 -12
277 47 6 0 22.819397758825204 13.21152468079001 6.514208620632837 2 0 -4
278 47 6 0 23.366395072308613 13.92940467253955 9.969066603622421 2 0 -4
36 6 6 0 3.102372022518064 18.491113059490388 0.8829693537499643 -9 2 -3
149 25 6 0 37.03264150806197 37.91196356097445 17.796452992887037 -40 -33 11
150 25 6 0 0.5889891978908499 39.34274044172527 17.759507147433922 -39 -33 11
596 100 6 0 34.205583056505915 9.226846803041942 16.23737055997701 36 -14 14
595 100 6 0 36.97371970277751 6.7775084955786085 14.506684829605526 36 -14 14
598 100 2 0 35.37808623262795 11.18032728761121 23.061309651892557 36 -14 14
500 84 6 0 29.982052435565855 9.28833470036924 3.2179546177164955 20 -5 -9
186 31 6 0 21.771588618092593 18.984717411576494 16.615028242711663 -13 -6 6
543 91 2 0 30.715043532151935 34.87923857013154 11.258924339421272 -21 -4 1
501 84 2 0 33.28354133819855 9.342357157902804 5.077163230567769 20 -5 -9
502 84 2 0 30.68302993512933 10.407083984547473 7.458130831758093 20 -5 -9
111 19 2 0 28.135476176506454 19.233910453399584 21.98917679692358 -1 22 -28
80 14 6 0 23.01878065538866 7.784292436047501 6.704671183830976 24 -16 10
112 19 2 0 28.492911644017024 17.928220083147938 18.273048397239283 -1 22 -28
544 91 2 0 31.811745727038222 31.181444203280154 12.849425878547837 -21 -4 1
545 91 6 0 28.354964646758702 29.868572678510937 13.135171966708329 -21 -4 1
546 91 6 0 26.51259833301649 32.80587620940859 13.004781610532282 -21 -4 1
385 65 6 0 34.82562819467019 2.6479902080151487 69.59710191114524 8 64 -5
282 47 6 0 21.255788191344227 10.874802657581375 17.194480016920366 2 0 -4
281 47 6 0 22.69024255338509 13.849355750363891 15.121893379806098 2 0 -4
185 31 6 0 19.227935373828007 17.786862775174164 14.482198618189168 -13 -6 6
79 14 6 0 25.584341748258712 9.00716269520393 9.533192836080259 24 -16 10
279 47 2 0 27.221083888860754 13.48632773986092 10.463573986786717 2 0 -4
388 65 2 0 36.30924144955161 4.283434865817709 3.534406572249866 8 64 -4
280 47 2 0 26.631192476609876 13.44894288032408 14.312692877942336 2 0 -4
386 65 6 0 37.54431797540574 4.422290360375474 71.63908619279806 8 64 -5
387 65 2 0 36.232328759476744 6.035917986685125 0.1606249778964676 8 64 -4
597 100 2 0 34.19910582304334 9.204504323593904 19.976950051173972 36 -14 14
235 40 6 0 27.330787186638176 3.909258367178617 12.510949049175144 -10 -4 28
427 72 6 0 35.27218148861896 33.97773823421658 14.575025233335984 -5 19 -2
236 40 6 0 23.657407480127876 4.979268729664523 13.183340202471669 -10 -4 28
120 20 6 0 22.04460598627553 0.6862064322652978 4.177910646826774 2 -9 -30
32 6 6 0 35.83328067636137 19.684570520024195 72.70971201990461 -10 2 -4
110 19 6 0 24.825531089330042 17.18086192683122 21.668490985404084 -1 22 -28
109 19 6 0 24.472440287980987 13.780186522026678 23.344457996659862 -1 22 -28
389 65 6 0 34.40331156519025 1.2564346432532976 4.800949789531973 8 64 -4
33 6 2 0 35.91644410497031 19.244983116097124 1.5269036659044997 -10 2 -3
115 20 6 0 28.53402496519995 0.8980023002758953 74.49306775935369 2 -9 -31
247 42 6 0 19.860178502732712 20.31064877108013 8.68405879161831 3 4 15
248 42 6 0 22.795799645804493 21.989960071187074 10.081128301322726 3 4 15
397 67 6 0 24.806386275711077 9.447505385616882 20.3761785458093 22 41 1
60 10 6 0 2.433062276363373 38.86052876457018 30.568742388724868 5 -32 28
58 10 2 0 0.1950403326293184 3.895382493008304 28.56018705052737 5 -31 28
57 10 2 0 37.318232066652854 2.4631262167089614 26.322136707302835 4 -31 28
44 8 6 0 0.284698334904952 27.97295410451223 13.628320922877677 1 -45 -12
45 8 2 0 0.37070919850889184 25.20659428523048 10.956589398819341 1 -45 -12
46 8 2 0 37.01179271789604 23.926875171424708 10.09133509808761 0 -45 -12
147 25 2 0 2.3051037534803185 33.208220306934095 14.619397187175139 -39 -33 11
146 25 6 0 5.512014187939405 33.845207809758506 13.044501681312102 -39 -33 11
141 24 2 0 11.457440014402323 36.35743464704961 8.400655258573522 40 -6 -3
148 25 2 0 39.54403436546819 36.098838762002224 14.88142757668299 -40 -33 11
47 8 6 0 33.84253690479345 21.642870676311027 10.006495325511635 0 -45 -12
255 43 2 0 5.134053535193912 24.879209434359275 74.42034513626575 -19 -2 -9
363 61 2 0 12.232012817040754 28.416013563413244 13.170665391675922 8 12 0
379 64 6 0 10.182615916015187 30.186122647116388 24.63477986246616 -42 -39 3
366 61 6 0 5.1857403213333955 30.306069431633514 7.078865071196406 8 12 0
181 31 6 0 8.135108830990122 20.90107016311238 13.85292882956873 -13 -6 6
364 61 2 0 8.8180268096109 29.538946035039597 13.27725085464491 8 12 0
365 61 6 0 8.021543065444355 30.41163326451205 9.46997100017044 8 12 0
330 55 6 0 2.6035101107839638 30.02218963833724 73.87488449958325 26 -16 -8
23 4 6 0 0.28808669290227124 22.449693782837006 23.74782518342671 5 -18 21
348 58 6 0 35.593718384726 32.04913820062616 4.7428115370477535 3 9 -35
347 58 6 0 35.19376322374975 30.506296191465122 1.4189075178601493 3 9 -35
381 64 2 0 15.386751099650699 29.452256812423382 24.989528778883052 -42 -39 3
380 64 6 0 12.515904494164017 27.909296874473828 27.089505578740273 -42 -39 3
287 48 6 0 2.159280352308213 23.466313236952274 17.158474078469066 -5 -6 1
382 64 2 0 16.05326914220393 26.634285935335264 22.384935067849288 -42 -39 3
98 17 6 0 5.379977711646135 25.461238549806012 7.889914006433472 -37 -48 -1
101 17 6 0 11.859018018110236 22.065220585768756 4.8413240179947135 -37 -48 -1
100 17 2 0 11.538557797130295 26.064716077959364 5.235351008784644 -37 -48 -1
99 17 2 0 7.307610696265832 26.33080460921854 4.874887925872827 -37 -48 -1
288 48 6 0 4.336255373929264 20.136242198924982 17.114178718144903 -5 -6 1
269 45 6 0 20.20024959611761 39.3286276244103 27.000115479961078 -3 8 -18
268 45 2 0 20.04619403180983 2.7886180271453367 25.175314935033775 -3 9 -18
286 48 2 0 4.961205734623309 25.98893093057377 17.855233414228557 -5 -6 1
285 48 2 0 7.10911215201542 26.140776844702085 20.837907484188154 -5 -6 1
52 9 2 0 1.5545139052676493 0.6875623767609708 71.08633257668433 -53 -26 6
24 4 6 0 0.528310093948158 18.9434156094296 22.276093282806794 5 -18 21
362 61 6 0 15.664633503138823 30.17069399386718 13.848740970896117 8 12 0
361 61 6 0 14.757674123000664 32.53958517125048 16.496033262803728 8 12 0
22 4 2 0 0.5611929948244638 26.228439075136237 23.962267153885538 5 -18 21
328 55 2 0 39.541600105765355 29.252579085021836 2.4727233516431104 25 -16 -7
329 55 6 0 3.3257524672681416 29.64712289869163 2.4933605834651065 26 -16 -7
327 55 2 0 0.18667421176684293 29.542624218233655 6.193664690871231 26 -16 -7
383 64 6 0 16.294966828717186 23.298883557598515 19.843654024980793 -42 -39 3
284 48 6 0 5.082826318356806 28.451098573531265 22.763336404034103 -5 -6 1
384 64 6 0 13.750755887297746 24.458129471245993 17.59011745061909 -42 -39 3
267 45 2 0 16.985815836539317 3.1028830941104975 23.308223551017637 -3 9 -18
283 48 6 0 4.384714862285249 31.946591963376953 21.401911575070592 -5 -6 1
436 73 2 0 20.47254819596386 28.140234359890147 23.304133058876456 -18 -5 -10
198 33 6 0 13.124253808870986 31.634189976356435 2.3712771299747604 3 13 42
102 17 6 0 14.310075580484174 20.45116850483408 6.808127013022242 -37 -48 -1
93 16 2 0 22.22747632840211 17.95190793263872 73.27823474973974 6 -8 -6
114 19 6 0 27.931589342711614 23.326101863625937 13.14690738402047 -1 22 -28
113 19 6 0 28.34438307606716 20.34915350262401 15.330144525779007 -1 22 -28
183 31 2 0 12.056609966491719 19.12830008264382 16.871098565951232 -13 -6 6
184 31 2 0 15.775067798231605 18.231438796648963 15.791767898200119 -13 -6 6
390 65 6 0 34.0040153094867 37.753700237884466 4.476738741860036 8 63 -4
428 72 6 0 36.17739630796712 32.38508581453188 17.51843058029374 -5 19 -2
345 58 2 0 31.692102064990753 34.70460083377132 74.79352580714223 3 9 -36
344 58 6 0 34.996646080782355 36.03709617942984 73.19765986864678 3 9 -36
343 58 6 0 36.65169520424099 38.5201937048086 0.6193819383379457 3 9 -35
346 58 2 0 33.02219473067441 31.30850943521876 73.80933832801671 3 9 -36
440 74 6 0 20.942846289237586 39.49313259658308 20.851847162575847 -37 15 5
439 74 6 0 18.348315364210816 39.6965012161077 18.18039154134192 -37 15 5
162 27 6 0 14.872993995379144 30.350910188987527 8.584828205336544 -39 -15 -10
161 27 6 0 17.02470472457728 27.113389322370917 9.343241499930382 -39 -15 -10
160 27 2 0 15.121227022653313 24.545535917143944 11.257686438726115 -39 -15 -10
159 27 2 0 18.252463548571146 24.064676443675165 13.358141098208758 -39 -15 -10
157 27 6 0 23.307865300388855 25.134675997392876 15.023696264915996 -39 -15 -10
158 27 6 0 20.33020409843034 27.529272482033438 13.700050609605661 -39 -15 -10
270 45 6 0 18.243940356677363 36.58658381363957 25.210136290398626 -3 8 -18
31 6 6 0 32.039961605227106 20.93919664045886 73.4463986721067 -10 2 -4
542 91 6 0 29.98797892608618 38.527587615883064 10.829802244156626 -21 -4 1
251 42 6 0 30.533042038363508 22.936522517057327 2.9696742699505254 3 4 15
21 4 2 0 39.566904462378595 29.33992388635222 26.533632090731235 4 -18 21
326 55 6 0 39.679602318102965 31.751560721351268 9.002973953409455 25 -16 -7
518 87 6 0 18.464155478736647 35.22142275041723 5.756440873506008 26 3 6
517 87 6 0 16.011456844157856 38.121458010154626 5.017143943957201 26 3 6
19 4 6 0 36.66632324442602 34.03072212144037 23.306970316383634 4 -18 21
519 87 2 0 21.233147011813443 33.99351592228615 7.859507681341395 26 3 6
520 87 2 0 22.097513641299386 30.63836738112323 6.573319921291046 26 3 6
541 91 6 0 26.877527996311077 36.83701734170305 9.294831048838487 -21 -4 1
431 72 6 0 29.5417106664783 33.91582577138151 20.819573101088885 -5 19 -2
430 72 2 0 31.90779491071476 30.51446128553256 21.35511671259517 -5 19 -2
429 72 2 0 33.11358590301929 31.035638666680363 17.75663177987696 -5 19 -2
325 55 6 0 36.704027297663 29.47966946919977 9.648280137774382 25 -16 -7
262 44 2 0 27.579879925700812 32.887339790018515 71.4916450865337 16 35 5
522 87 6 0 26.01301659144823 28.820019764087597 8.196328113672973 26 3 6
521 87 6 0 24.790910462557775 28.765364968795158 4.709571969694203 26 3 6
432 72 6 0 26.51610472724965 33.02136868870716 18.521953159629327 -5 19 -2
119 20 6 0 20.408674707248874 38.58029731731041 1.3467454779559047 2 -10 -30
559 94 6 0 34.06611552793703 19.09246734163785 20.727390230729235 -2 -4 3
259 44 6 0 18.94140865570854 33.26844867480559 74.59288889530893 16 35 5
250 42 2 0 28.06515430547163 23.789859123052707 5.6167120871451806 3 4 15
249 42 2 0 25.145696786751223 23.75044761959615 7.7009328838262325 3 4 15
437 73 6 0 20.83824214481355 31.820527235256844 22.429803056545797 -18 -5 -10
561 94 2 0 31.824905803696645 25.48376316727879 19.102640984015835 -2 -4 3
433 73 6 0 18.921434243312188 22.497132391808204 26.74141262494923 -18 -5 -10
560 94 6 0 32.55502980317929 21.89290119479879 18.531019878895236 -2 -4 3
504 84 6 0 33.965028025863305 14.46779324955299 3.8928560737762257 20 -5 -9
252 42 6 0 27.56880147676445 21.13664620219969 2.0970236663483606 3 4 15
265 45 6 0 13.546966892380254 1.3037155482061291 29.418760551115398 -3 9 -18
318 53 6 0 4.753675411196024 8.64685755339229 23.96297898193534 -42 4 7
323 54 6 0 9.330431031219124 0.797052764572331 50.026401102176294 20 -12 25
322 54 2 0 7.0528814979767 3.1248521411872163 47.491883726311414 20 -12 25
321 54 2 0 8.83184106086176 3.705315114872061 44.25719210589062 20 -12 25
525 88 2 0 23.418425357756913 5.561091333734474 38.79735303189515 31 43 26
524 88 6 0 20.808222937587693 8.441099652253206 39.98227264865477 31 43 26
526 88 2 0 20.688625717985563 2.549754636181577 39.470823598842 31 43 26
553 93 6 0 8.947085606082789 19.37070735478409 37.16307727329884 2 -41 11
528 88 6 0 14.273248321745713 3.5708979808306336 43.10506111421069 31 43 26
527 88 6 0 17.490915876955626 2.4526674675456075 41.83258057476671 31 43 26
413 69 6 0 4.6060197034606505 12.081371398550539 39.85016342639817 14 -7 10
414 69 6 0 8.313748088829643 12.969891504287327 39.41122445363073 14 -7 10
320 54 6 0 9.911278156594491 7.720438529251572 44.61637818127064 20 -12 25
319 54 6 0 6.617891057099138 9.584911007536585 45.3698050725786 20 -12 25
411 69 2 0 2.893947793485631 15.054581071711546 45.98057013018111 14 -7 10
312 52 6 0 17.14090159516951 11.374638895938476 31.464797899680672 -42 14 -7
412 69 2 0 5.2961017777699535 14.09871724095844 43.140595163866024 14 -7 10
217 37 6 0 5.962589661692802 37.54630480861225 41.50651659886327 -11 42 0
218 37 6 0 2.593774789485559 38.893105230168615 41.25283037952379 -11 42 0
311 52 6 0 14.405057882303371 9.330176374195023 32.90299406913861 -42 14 -7
309 52 2 0 8.798903440769456 13.004515201356234 30.549396544850353 -42 14 -7
310 52 2 0 12.551391402883173 11.311433001448119 30.193794030456534 -42 14 -7
480 80 6 0 11.006636090385987 12.14041502154251 47.57666268492941 37 -68 8
515 86 6 0 37.31193352941498 13.207759262393589 47.59070786783658 19 -31 -25
400 67 2 0 23.343372909846583 5.62930115928698 29.437134960544828 22 41 1
516 86 6 0 35.826815497317234 14.66552381421697 44.54777852667543 19 -31 -25
554 93 6 0 5.393236032283444 17.83786911496798 37.15738649395214 2 -41 11
177 30 2 0 17.67442708520408 37.63524521095325 45.525499647573554 -26 -31 3
176 30 6 0 20.632327371827696 39.36477877454602 46.854318768367456 -26 -31 3
555 93 2 0 4.918373741115454 20.677031914593883 39.47671896005374 2 -41 11
556 93 2 0 6.581142084215039 20.043030372208754 42.805253875299066 2 -41 11
15 3 2 0 7.02837603565349 35.667283739238464 30.471414768397505 10 -41 17
16 3 2 0 6.822047878017407 37.3306000621302 33.85459447584978 10 -41 17
307 52 6 0 12.731742370001875 18.51182465526496 30.638614859476792 -42 14 -7
232 39 2 0 38.79445055285749 13.699071242745426 29.277369917245416 -24 -11 4
231 39 2 0 0.908867941628292 14.934197736701725 31.874926706700055 -23 -11 4
230 39 6 0 4.336493778814161 16.233609481646344 30.78958268503287 -23 -11 4
233 39 6 0 0.8194999672232974 10.45205333614936 27.912070453867827 -23 -11 4
234 39 6 0 1.6935167466707597 9.540909630103009 31.759710761033936 -23 -11 4
308 52 6 0 10.442439437143747 16.05306304193312 32.14516014894721 -42 14 -7
420 70 6 0 15.188668395764385 13.04128791561351 35.82639239653746 55 -20 4
419 70 6 0 17.803742437946593 15.759091545532117 35.450523757012 55 -20 4
228 38 6 0 14.582355140234114 16.36050272373725 39.899654226627035 17 12 6
514 86 2 0 38.370447524172306 13.538101366968506 51.256205238566004 19 -31 -25
582 97 6 0 1.3035377183810668 2.1868186332589143 47.7695637489898 36 16 7
581 97 6 0 39.551101632646244 39.63109116516218 45.15768177278417 35 15 7
478 80 2 0 8.165430430605989 15.998281704399952 47.93490156773111 37 -68 8
476 80 6 0 7.949737343004207 9.772805808148473 52.47988580865365 37 -68 8
477 80 2 0 7.430377720493137 12.830641379948789 50.61980279538712 37 -68 8
479 80 6 0 10.27009426050455 15.200217285970835 44.72313711954362 37 -68 8
30 5 6 0 16.32309894455183 17.43245524980548 55.809833048729566 -8 44 5
224 38 6 0 14.063052257754943 20.876436086014316 49.87120733493188 17 12 6
223 38 6 0 12.379050852198828 20.390044835726627 53.190465433670106 17 12 6
59 10 6 0 2.9780725051615655 2.661083853708466 30.90943997194211 5 -31 28
523 88 6 0 19.9632864677615 8.180807126899792 36.17106856894102 31 43 26
401 67 6 0 24.402245285098644 3.977408927435344 26.35466472057948 22 41 1
540 90 6 0 28.27450823370842 18.395997132184203 29.375409103495187 -23 -1 -16
402 67 6 0 27.99134082630113 4.219840293919052 27.747756035893193 22 41 1
578 97 6 0 37.51903269391216 4.530227345928745 43.556410367535946 35 16 7
410 69 6 0 1.8835076580721941 18.694858395613704 45.5386156409684 14 -7 10
537 90 2 0 28.105119114362566 9.992623454987068 27.841463293903132 -23 -1 -16
538 90 2 0 29.41726005855716 13.448276295308418 26.94349179879747 -23 -1 -16
163 28 6 0 32.405396708567686 39.30012107556741 53.54643845219376 -18 44 -4
219 37 2 0 0.47080379046494714 0.1283108978113774 38.55255775712958 -11 43 0
65 11 6 0 24.294862525349725 11.940620932377028 39.20918961613923 -38 -44 2
398 67 6 0 23.88511093827397 8.73132527710298 23.92114190529757 22 41 1
399 67 2 0 23.453150412579486 8.921554786182744 27.635738853246863 22 41 1
539 90 6 0 27.622181622871853 16.42602443116046 26.684548118989103 -23 -1 -16
409 69 6 0 38.42632976293907 20.614786460577623 44.60177707517792 13 -7 10
76 13 2 0 23.547428392910764 16.70044384982432 41.6205112600198 72 6 -37
353 59 6 0 34.44805061358682 17.2825491445795 37.32590748506368 -9 30 6
351 59 2 0 31.16468122126391 13.645325255422843 34.460905106875586 -9 30 6
349 59 6 0 37.371476873526774 11.161702678251547 33.72623576504629 -9 30 6
220 37 2 0 1.8216832182877831 3.4377503017721396 36.567899033662066 -11 43 0
536 90 6 0 29.596197980362895 7.52296674843579 29.973874349704225 -23 -1 -16
221 37 6 0 2.1834559559756155 6.961006164398165 38.00909371147269 -11 43 0
56 10 6 0 35.084500194352984 3.9698918715649274 23.627864309864695 4 -31 28
55 10 6 0 36.07433952919024 4.346101696668516 20.236435095179527 4 -31 28
72 12 6 0 34.01720070978945 22.70856267003869 37.160481003044325 32 24 26
71 12 6 0 32.13218621293853 22.714667740716123 40.12109827718713 32 24 26
70 12 2 0 32.301641045952344 19.794515020406678 42.47325963046383 32 24 26
69 12 2 0 30.92691725662406 16.212589063789174 42.41973376147749 32 24 26
68 12 6 0 32.1649626007785 12.859045855292925 40.775555540372466 32 24 26
67 12 6 0 32.097741537367725 9.209707947780526 41.4512504481547 32 24 26
153 26 2 0 27.300311720788006 3.8702127463668137 40.00030132780201 -36 -14 0
154 26 2 0 29.437017610131342 6.7496224491346615 38.28778801112089 -36 -14 0
155 26 6 0 32.44338021111457 7.697912672575789 35.512234616262695 -36 -14 0
354 59 6 0 38.39670170230016 16.29396895348844 36.470364784111794 -9 30 6
350 59 6 0 33.89446941472569 11.917954157213545 32.672960919445835 -9 30 6
352 59 2 0 30.824371568832866 16.79223824407474 37.12770990119138 -9 30 6
535 90 6 0 26.491554843247282 7.532438515600777 31.838604061160755 -23 -1 -16
392 66 6 0 38.320429592340055 20.470011414356012 53.68577614721452 -20 -72 -31
64 11 2 0 26.846908839939218 9.886290080079503 40.786596002821675 -38 -44 2
222 37 6 0 39.12879512419121 8.925307755015112 39.11158460346902 -12 43 0
66 11 6 0 22.9313514067415 12.723845860654437 35.802603595866316 -38 -44 2
156 26 6 0 35.20296520664522 4.9236993440609 35.554282012612035 -36 -14 0
229 39 6 0 5.191005434767993 16.199311879075854 27.014387211750904 -23 -11 4
418 70 2 0 15.4582843629808 19.032150673384532 36.332120125193214 55 -20 4
78 13 6 0 27.414326356882302 15.03540716411902 47.01351218111544 72 6 -37
579 97 2 0 36.25004500912399 2.323211300969323 41.16628044123797 35 16 7
580 97 2 0 35.82679743372861 39.708610777760555 44.10753007929191 35 15 7
29 5 6 0 16.338528330467263 13.569332979948147 54.72924589011408 -8 44 5
577 97 6 0 37.31741293056849 8.315184445756204 44.42757092944533 35 16 7
63 11 2 0 27.038237548746615 6.925153852957054 43.357375578581276 -38 -44 2
513 86 2 0 0.8256201646950612 16.319799412716 50.00219469899805 20 -31 -25
62 11 6 0 27.273258520868605 8.682396834735412 46.775681561295215 -38 -44 2
276 46 6 0 4.056792438431141 21.99004474632435 32.4385008695304 -1 -14 9
14 3 6 0 9.174126778859419 34.36967049248377 27.59672564164395 10 -41 17
13 3 6 0 11.111584667818429 33.11099769444799 30.525404455544518 10 -41 17
179 30 6 0 12.059618255893128 35.28999081247205 41.25654267193363 -26 -31 3
576 96 6 0 15.844728034837535 4.247378769480189 33.8217380402859 19 6 -9
17 3 6 0 5.9567086175459 39.44519450056107 36.77114666676505 10 -41 17
574 96 2 0 14.550058619619683 38.56833208737286 35.60501447260291 19 5 -9
227 38 6 0 15.280122427880618 15.756664804097877 43.501386340341504 17 12 6
178 30 2 0 14.493681711482855 35.51981860754045 44.3584392347787 -26 -31 3
445 75 6 0 1.5212094335467399 29.4460509140613 45.035786615473654 70 -19 -41
557 93 6 0 9.631518957571721 21.616844362739055 41.9885258060158 2 -41 11
18 3 6 0 7.867598839826145 2.06886327384962 38.54768699695458 10 -40 17
483 81 2 0 8.442238659055988 26.986701586720287 41.38234465364445 22 -1 7
484 81 2 0 4.848753862429153 26.479050740159067 40.04924957892463 22 -1 7
482 81 6 0 9.382849728441986 30.029944486480556 39.136537257397485 22 -1 7
565 95 6 0 15.302228479310731 28.208725132323277 45.3479305293047 3 18 20
568 95 2 0 9.630396242509285 28.37345872890916 45.74147987493191 3 18 20
569 95 6 0 8.521998458445045 28.882898101079896 49.28517536341166 3 18 20
570 95 6 0 8.178101113295684 29.144337106372863 53.23735678306289 3 18 20
566 95 6 0 14.669630690028491 25.007362142293665 45.8783822631795 3 18 20
567 95 2 0 11.26966712307513 25.316293396923108 47.800031891687276 3 18 20
1 1 6 0 19.522144756683304 22.231738093571423 41.784640898659326 -16 -29 17
485 81 6 0 2.697176681934017 25.720305569636157 36.90902825141084 22 -1 7
2 1 6 0 17.24937704414477 25.28663725440348 40.53561443778762 -16 -29 17
3 1 2 0 15.396407771392173 27.68429344770521 38.18796443704505 -16 -29 17
180 30 6 0 9.794977276197079 34.448045806676554 44.1307183453767 -26 -31 3
4 1 2 0 15.787562289489125 30.190849013083582 35.47145229830476 -16 -29 17
486 81 6 0 0.41375630227627624 22.73311164930128 37.76856091001999 22 -1 7
275 46 6 0 7.700435471627079 23.104046425546382 31.40946496257658 -1 -14 9
558 93 6 0 12.920254111160116 21.206600189244824 43.7863827018412 2 -41 11
6 1 6 0 18.71398837345246 32.353976611322956 30.842841445569462 -16 -29 17
5 1 6 0 19.50495878522362 31.385217368420623 34.64678345575562 -16 -29 17
225 38 2 0 16.26466394932973 19.22285743835642 47.608809869704565 17 12 6
226 38 2 0 15.081125329072869 15.64024530399237 47.22595968276409 17 12 6
271 46 6 0 5.641868599783563 30.290378624649463 28.383151496736218 -1 -14 9
272 46 6 0 6.184048790419666 31.577424048467535 32.03805323124884 -1 -14 9
594 99 6 0 34.05360415474827 18.342405400210293 26.780572188466472 39 14 0
481 81 6 0 6.283377199516773 31.245244970213474 37.18011018910451 22 -1 7
417 70 2 0 14.513166493858948 22.57820596179619 36.525660471718766 55 -20 4
274 46 2 0 6.646280946796985 26.578892323952687 33.19381693466052 -1 -14 9
273 46 2 0 9.282200494184176 29.501801156064303 32.8939789129004 -1 -14 9
593 99 6 0 37.9470169531507 18.88146553155187 26.821367757680537 39 14 0
447 75 2 0 3.4527312095017515 34.025286506242956 43.81404588840126 70 -19 -41
448 75 2 0 1.2822828003363476 34.4968382296938 46.871691148969944 70 -19 -41
403 68 6 0 22.268746215838732 23.98031869764447 50.41469322228228 -25 3 16
175 30 6 0 19.341696856679544 2.0587207622088406 49.273501275093125 -26 -30 3
404 68 6 0 21.21974311344367 21.62844491110902 47.57569415257307 -25 3 16
443 74 6 0 27.84451700588812 38.691575344353325 25.9519848283709 -37 15 5
442 74 2 0 24.384127017638658 38.18805735220658 25.77569974515938 -37 15 5
20 4 6 0 36.812848721267 31.11305753061921 24.86708691439021 4 -18 21
441 74 2 0 24.413980890532347 38.79720500507084 22.21837279960958 -37 15 5
444 74 6 0 30.704645745390465 37.45564324228534 24.63192356985018 -37 15 5
337 57 6 0 37.19330401457133 34.97419480146961 41.28654974898225 12 -11 7
339 57 2 0 0.5860876757989475 32.22821162442065 36.00630675712192 13 -11 7
338 57 6 0 0.10964057206133244 34.93193688333593 38.55205618429308 13 -11 7
340 57 2 0 39.10443106112761 29.267424279336236 38.03845809440755 12 -11 7
151 26 6 0 31.245158606279922 1.9248195821462004 37.392443033796624 -36 -14 0
152 26 6 0 28.112506097017413 0.25541550072820135 39.33090477731836 -36 -14 0
77 13 6 0 25.009617870738126 14.063636317037183 44.35262772218668 72 6 -37
573 96 2 0 17.62420803076732 37.344342357142246 36.97975066267811 19 5 -9
575 96 6 0 16.266149869336164 2.2465483952524683 36.765676898810064 19 6 -9
127 22 6 0 32.64707274981643 36.73882178643136 39.14530301870096 -26 -11 9
438 73 6 0 20.535126978899147 33.32641955393185 19.194527929213763 -18 -5 -10
135 23 2 0 27.594864606948374 29.41804495417358 35.90987525974264 57 -17 5
415 70 6 0 22.038340720832593 25.931911749614844 36.4124105726346 55 -20 4
416 70 6 0 18.22990029039477 24.321470479238187 36.08732750644663 55 -20 4
133 23 6 0 25.669681532316304 36.5536466165449 34.20268840500954 57 -17 5
134 23 6 0 26.49366410207043 32.90974741791848 35.86912000166588 57 -17 5
446 75 6 0 4.951477568113649 30.78178024552263 45.5288802736833 70 -19 -41
204 34 6 0 17.531209425014584 25.1660798063767 53.94682972252081 6 -8 -14
563 94 6 0 28.408449133075177 23.22284568329978 24.404940579155255 -2 -4 3
564 94 6 0 25.281192617680816 22.868919937901953 26.754275423622474 -2 -4 3
562 94 2 0 29.163947767330296 25.983090309370553 21.89190729426601 -2 -4 3
137 23 6 0 24.831303414185143 26.547541890755415 31.185711125961372 57 -17 5
75 13 2 0 22.478864644089555 17.504889102114202 37.887033492720214 72 6 -37
138 23 6 0 24.996344365896395 29.807738966006337 30.009836535237568 57 -17 5
136 23 2 0 28.369743510678315 27.275445840795552 32.89933693643059 57 -17 5
341 57 6 0 37.76800710454718 27.73821326714334 41.11240267515536 12 -11 7
434 73 6 0 21.433207454720637 21.264834690958125 24.134836721636923 -18 -5 -10