LAMMPS data file via write_data, version 10 Mar 2021, timestep = 260024000

60 atoms
40 atom types
50 bonds
1 bond types

0 40 xlo xhi
0 40 ylo yhi
0 75 zlo zhi

Masses

1 131.2
2 57.05
3 128.2
4 101.1
5 156.2
6 71.08
7 115.1
8 129.1
9 163.2
10 99.06999999999999
11 113.2
12 128.1
13 186.2
14 147.2
15 87.08
16 137.1
17 114.1
18 97.12
19 103.1
20 113.2
21 131.2
22 57.05
23 128.2
24 101.1
25 156.2
26 71.08
27 115.1
28 129.1
29 163.2
30 99.06999999999999
31 113.2
32 128.1
33 186.2
34 147.2
35 87.08
36 137.1
37 114.1
38 97.12
39 103.1
40 113.2

Atoms # full

34 6 2 0 9.055247405895615 6.0249732300203345 0.36697083283493726 70 -72 66
31 6 6 0 0.8220130893940857 8.31576276874395 2.4671514304855178 70 -72 66
28 5 2 0 0.891765047399825 1.1592170557805574 24.805001498302506 19 -49 41
32 6 6 0 2.600662115246024 4.8860215006126175 1.861502410410321 70 -72 66
43 8 6 0 28.27056761591506 16.541438211485648 10.57810130516658 -101 -26 13
46 8 2 0 26.048544973747553 5.887935489960276 13.054215023569224 -101 -26 13
45 8 2 0 27.12987150844394 9.138738961618536 11.39362463495065 -101 -26 13
44 8 6 0 27.54603786778279 12.948040342682372 10.926672598337655 -101 -26 13
47 8 6 0 24.068696852569968 3.275384659718538 14.815596469500939 -101 -26 13
48 8 6 0 27.36122206663665 2.6244219010623673 16.38801436817593 -101 -26 13
49 9 6 0 18.984664099477683 26.159856394614035 6.896701751672099 174 61 65
51 9 2 0 12.437090320598433 27.776480190853437 5.098807668271976 174 61 65
50 9 6 0 15.238123802306815 25.772690311655715 7.407598075981369 174 61 65
52 9 2 0 9.072621972398508 29.566203226061116 5.86355555047943 174 61 65
53 9 6 0 7.98109713707587 28.596331938020654 9.649349307619207 174 61 65
9 2 2 0 19.7970449106808 30.025492843810106 15.357655290715753 64 -141 12
54 9 6 0 11.442610245010348 28.53140121731596 10.339130745890005 174 61 65
7 2 6 0 18.10056024310764 34.118453152259185 16.935813043549004 64 -141 12
10 2 2 0 19.87424801411766 27.249706219069186 17.278408982813524 64 -141 12
26 5 6 0 5.540843306505631 37.01967578755695 24.784844349061895 19 -50 41
25 5 6 0 8.714925978031454 35.018021197312 23.860382372655014 19 -50 41
27 5 2 0 2.690850230206413 38.52369287562289 23.118272165938972 19 -50 41
8 2 6 0 21.95681322258033 33.42807764161361 16.16611757060953 64 -141 12
12 2 6 0 23.97345862915897 21.74594930217162 19.196895571077302 64 -141 12
11 2 6 0 21.752493449276958 24.750599344419985 19.420250638921953 64 -141 12
30 5 6 0 34.655933957268616 38.397098132638206 24.246439481437562 18 -50 41
42 7 6 0 17.708796649033584 10.050790484318048 30.510010675449553 56 34 68
17 3 6 0 24.790907426395655 17.769252166426313 27.30263126013996 -22 165 -1
18 3 6 0 21.38093019381366 19.570551390385614 27.2803706083933 -22 165 -1
41 7 6 0 21.435624673709324 9.772229852684738 29.763774667336214 56 34 68
39 7 2 0 25.990266328099267 4.670126799984584 31.730268647402507 56 34 68
38 7 6 0 23.027889333051085 3.1507773790107008 33.731048975148376 56 34 68
40 7 2 0 24.741324539686097 8.15440426924513 30.740352067889667 56 34 68
37 7 6 0 20.853718690031734 5.404463751228339 31.678484507708028 56 34 68
55 10 6 0 32.6381151916113 15.0664253475531 31.68953351021942 -81 51 33
57 10 2 0 34.25193436190177 10.659269536703468 36.37553499371015 -81 51 33
29 5 6 0 37.28307440876569 1.23422425734848 25.090764704854212 18 -49 41
59 10 6 0 32.599597318543836 13.475061943611092 39.58457923848581 -81 51 33
60 10 6 0 36.207881276970895 11.990316217181293 41.12248439573278 -81 51 33
58 10 2 0 31.81418226928468 13.605490278681359 35.97638873259066 -81 51 33
19 4 6 0 33.330989370091906 0.22991080110010417 49.96175936967857 -69 69 37
56 10 6 0 33.57037853625851 11.566621787079283 32.67809722563516 -81 51 33
16 3 2 0 25.41118726910924 21.63508950829229 27.852910257395447 -22 165 -1
15 3 2 0 23.516721110694302 23.491609841426296 30.41899053553232 -22 165 -1
13 3 6 0 25.748936230147585 29.250683771064466 33.405669605845425 -22 165 -1
14 3 6 0 25.418428296496902 25.50706323013544 32.7170343991283 -22 165 -1
36 6 6 0 7.301849838790282 7.064585107950865 70.01161131434883 70 -72 65
35 6 6 0 9.790171722777272 8.464738555022256 72.49534376831618 70 -72 65
33 6 2 0 5.565404346180604 4.53771852253875 74.561048409432 70 -72 65
2 1 6 0 4.632287365946277 2.047061837278231 65.20610785664388 -6 34 -80
1 1 6 0 5.942818327266034 1.9603960769525752 68.75308796251403 -6 34 -80
5 1 6 0 3.4691150483291806 10.766899696316084 69.5589672575026 -6 34 -80
4 1 2 0 3.692876475687836 8.043125139976986 67.01893959464059 -6 34 -80
3 1 2 0 2.4459387308669607 5.192888734205937 65.2714500316239 -6 34 -80
6 1 6 0 1.9382250322491295 13.417094233203729 71.73268135727255 -6 34 -80
20 4 6 0 32.664460888965664 37.90068166487292 52.71551609088028 -69 68 37
24 4 6 0 24.847301623057124 36.64929101330204 52.71672903256013 -69 68 37
23 4 6 0 26.850123607257036 36.42413007065667 56.20878974697377 -69 68 37
22 4 2 0 29.243510350435407 34.29278311423139 53.87331564236043 -69 68 37
21 4 2 0 32.71775101401985 34.88465305085123 55.15299204726165 -69 68 37

Velocities

34 -0.0029189471412756794 0.003135489555158443 0.0006269608029447358
31 0.0015787170793217559 -0.0012127944141316334 0.003127462092920537
28 -0.0019427972662123178 0.004365279247968878 -0.0016309320590610994
32 0.0003222097872423273 -0.002354447357465733 4.62130096431672e-05
43 4.264219203690899e-05 -0.0009415158657026819 -0.0009397712223091692
46 -0.0001510612070426493 -0.0010855123201789448 0.0038175235400981686
45 0.0010352021546856604 0.002805244303304088 0.0019181893846932602
44 -0.001420073684236362 -0.0023001936830493 0.0029300140443598503
47 0.00016088336659791577 -0.003931230635732673 -0.0006567940732821681
48 -0.0013299016195832487 -0.0008919216614814967 -0.001153640242565664
49 -0.0013036765150961475 -0.004759645597501832 -0.0010168592426308572
51 -0.0018039683118107898 -0.0001478194522024252 -8.631920572512851e-05
50 0.003186581027677607 -0.0010484686969986319 -0.00017999919403166684
52 -0.0049225278421948454 0.0019870055884365135 0.0003993870966172294
53 -0.0030404881623538765 -0.0007891454437947702 -0.003948455256387846
9 -0.0021074929030882854 0.004143705785762203 -0.0013858526273010793
54 0.0020952043446435162 0.0024866174168807005 -0.0055977294562243405
7 -0.002315164530878686 0.0019279957454221292 -0.0021912011077402068
10 0.0009160722878665831 -0.0012482548627097557 -0.0021330697109324687
26 0.00223368137533201 0.003439036271218524 0.0003978602904734294
25 0.0010598957616156878 0.0020511366063215627 0.0018070891152482563
27 0.0019934496992282573 0.0011081634927211795 -0.00033619441816714186
8 0.0016941212294372782 -0.0006721397266455798 0.0004425467299891378
12 -0.0022609664184126215 -0.0023784646300875735 -0.0006393980825038082
11 0.003413927361255665 0.000768578453864463 0.0022277745226643142
30 -0.0014520321520655028 0.00010393203805736715 -0.0017217935960972908
42 -0.003516090267226867 -0.001988898921079689 4.945213058267048e-05
17 -0.0017829714788573125 0.0006106295472617015 0.00046539397133234624
18 0.001216072256992075 -0.00044155441793642617 -0.0002047786444469933
41 -0.0002930669741974927 0.002353426132196651 -0.000924440906777701
39 -0.003226072008381885 0.0014362333615657887 0.005015434206233163
38 0.002833796383437315 -0.0011829380795104739 -0.0008629886669883176
40 0.000869500978900757 -0.003490361786923901 0.0002132406493904151
37 0.0016803726696164158 0.0007660990440673162 0.000820963675546013
55 -0.0016738931919804824 0.0001250818243476208 -0.0005708188971539843
57 0.00047210993888310263 0.0006012473034647608 -0.0007527971108802515
29 -0.0010704164932774781 0.0031416052216979694 0.0008222249895469786
59 0.0013995547854624055 -0.002763259127429411 -0.003110563060868019
60 -0.0005173790863650662 0.0021219119908771436 -0.0029672608162044857
58 -0.0005475008759687289 -0.0007152918964280006 0.0024353056960357807
19 0.000611842170051401 2.4916087758523813e-05 -0.001358816929193657
56 -0.0027934311693086056 0.0022972538799977305 0.00012821184849592558
16 0.00029604261497819586 0.0051015185807403085 0.0007294566198985033
15 -0.0011919926803736316 -0.001235919115095221 -0.001672475609608817
13 -0.00028125836471360014 0.001213498374291526 0.0019093743711357726
14 -0.00023412794447070153 -0.00010539344692115954 -7.516425915852151e-05
36 -0.0029239219274694753 -0.0016974832401594712 -0.0005594673260955241
35 0.0008856408928393166 -0.0024823057796517756 0.00011543531311676865
33 -0.003023680903370415 0.003196808392338801 0.000948283850552591
2 0.0030131980460818848 -0.0027880264201823905 -0.002074125912525845
1 -0.0002819790654679217 0.0019515065470387728 -0.003997568843364488
5 -0.0037431875210318802 0.0032097922863859943 -0.0019895294789770805
4 0.00043503917507367167 0.005431802626579263 0.00029138164906768725
3 0.001961695962748643 0.0031287525340354763 0.003148673378821992
6 0.0015342982080614606 -0.0004851497176132349 0.001954514451897739
20 0.0008634672883016127 0.0014218157684254074 -0.004563835268703321
24 -0.00018879329822874016 -0.0007118247246182862 0.0005066364133480859
23 0.003156630799780194 -0.0015731520586162566 0.0027135104736113417
22 -0.0050768494257761865 0.0006727765640033282 -0.0033134625976090383
21 0.001647504209072835 -0.0007398701892514609 0.001216899079798523

Bonds

1 1 34 35
2 1 31 32
3 1 28 29
4 1 32 33
5 1 43 44
6 1 46 47
7 1 45 46
8 1 44 45
9 1 47 48
10 1 49 50
11 1 51 52
12 1 50 51
13 1 52 53
14 1 53 54
15 1 9 10
16 1 7 8
17 1 10 11
18 1 26 27
19 1 25 26
20 1 27 28
21 1 8 9
22 1 11 12
23 1 17 18
24 1 41 42
25 1 39 40
26 1 38 39
27 1 40 41
28 1 37 38
29 1 55 56
30 1 57 58
31 1 29 30
32 1 59 60
33 1 58 59
34 1 19 20
35 1 56 57
36 1 16 17
37 1 15 16
38 1 13 14
39 1 14 15
40 1 35 36
41 1 33 34
42 1 2 3
43 1 1 2
44 1 5 6
45 1 4 5
46 1 3 4
47 1 20 21
48 1 23 24
49 1 22 23
50 1 21 22
