LAMMPS data file via write_data, version 2 Aug 2023, timestep = 4024000, units = real

1200 atoms
40 atom types
1000 bonds
1 bond types

0 40 xlo xhi
0 40 ylo yhi
0 75 zlo zhi

Masses

1 131.2
2 57.05
3 128.2
4 101.1
5 156.2
6 71.08
7 115.1
8 129.1
9 163.2
10 99.06999999999999
11 113.2
12 128.1
13 186.2
14 147.2
15 87.08
16 137.1
17 114.1
18 97.12
19 103.1
20 113.2
21 131.2
22 57.05
23 128.2
24 101.1
25 156.2
26 71.08
27 115.1
28 129.1
29 163.2
30 99.06999999999999
31 113.2
32 128.1
33 186.2
34 147.2
35 87.08
36 137.1
37 114.1
38 97.12
39 103.1
40 113.2

Atoms # full

419 70 6 0 18.319653035504658 11.825135077253657 11.872369678307095 -2 -5 1
418 70 2 0 19.151884334779268 9.467377246754902 9.025337818748385 -2 -5 1
949 159 6 0 7.106616841654338 14.581382338402763 14.404931778598472 1 -1 2
950 159 6 0 8.654532746197681 17.74725766277721 14.024214345595478 1 -1 2
481 81 6 0 9.371242851563334 12.871942592369479 4.569282340132718 -3 4 0
672 112 6 0 14.467378982493992 14.985357955141902 16.44084851653439 3 -3 1
482 81 6 0 11.783782273526343 10.970452872981399 7.188123134670314 -3 4 0
1075 180 6 0 8.857274137695759 9.820751132446233 18.109471421557757 4 -1 2
1076 180 6 0 11.274212201339028 10.9315984545988 20.823550376859007 4 -1 2
483 81 2 0 15.264296988632362 10.2213205466112 6.64207288374343 -3 4 0
485 81 6 0 17.103370599769285 4.958046213446668 1.3984600307802177 -3 4 0
420 70 6 0 17.23867103520597 14.078046503898385 9.183970484902064 -2 -5 1
554 93 6 0 11.273391114252906 11.216434669618184 13.007446407797348 -1 -1 0
1078 180 2 0 15.467394690866657 6.231934444693472 20.246816543209768 4 -1 2
1079 180 6 0 18.90956269049088 5.113008671741446 20.50165127218067 4 -1 2
1077 180 2 0 12.25796798325641 7.257045129092653 21.593530521417545 4 -1 2
553 93 6 0 9.413282700020792 8.314959378097043 11.139746553964043 -1 -1 0
1080 180 6 0 16.80615862363794 2.242901673224045 20.50274043407203 4 -1 2
492 82 6 0 17.1514757925324 13.697332040673388 3.7826271516384598 -3 -2 -1
241 41 6 0 12.54314333987024 4.983104859022369 8.2797664907071 0 4 -2
555 93 2 0 14.621476150331052 9.761725049072858 13.285404477120807 -1 -1 0
563 94 6 0 10.155806832535434 4.230075804689229 18.659222154348317 0 -1 1
564 94 6 0 8.494529902029102 4.916477541837626 15.25302208408413 0 -1 1
417 70 2 0 17.808192288989616 7.079927040096009 11.387261648663337 -2 -5 1
637 107 6 0 7.7515262673706875 5.831123666662058 7.674406777982022 1 -3 1
671 112 6 0 10.979571101936777 15.756380310040138 17.905376571274875 3 -3 1
670 112 2 0 10.913526322584627 15.707318602212304 21.656847442817963 3 -3 1
387 65 2 0 5.096789607853869 13.527714235014127 1.5472802164612292 0 -1 0
1013 169 6 0 4.95797416029077 13.672957065578334 24.818351066809306 -4 -2 0
242 41 6 0 15.104245967562592 2.4641135184906116 8.651815854901912 0 4 -2
638 107 6 0 4.601677053937414 4.512043822164638 9.518815395930226 1 -3 1
1012 169 2 0 6.399775253689954 14.139137173619948 21.10568421805928 -4 -2 0
1011 169 2 0 6.712027202513555 10.418076636599814 22.017143034353328 -4 -2 0
1021 171 6 0 18.713371381290195 18.092051112203308 13.951041469303492 0 0 3
389 65 6 0 9.44702282543131 16.053725131315627 0.992784818865626 0 -1 0
439 74 6 0 8.556438938282302 14.75813863273786 9.675287891453554 1 -3 2
669 112 2 0 10.787450921592844 13.549112082526108 24.787095942180418 3 -3 1
427 72 6 0 3.470472760529365 9.312206683518706 10.075267200598361 2 3 0
243 41 2 0 17.116469848803884 1.205753205857995 11.225167127384607 0 4 -2
366 61 6 0 5.703926252703925 9.60804131962224 14.431587672972753 -2 2 2
951 159 2 0 5.6752173624952125 18.15217635953405 11.720112041479707 1 -1 2
639 107 2 0 2.066750801826699 5.542781017434142 11.806408347729489 1 -3 1
440 74 6 0 12.28408594665412 15.7042051720643 9.385057970435385 1 -3 2
151 26 6 0 10.903783063517745 18.50055508698798 5.295828414212437 2 4 -1
153 26 2 0 15.136055378809827 18.191776435991308 5.1521026989349465 2 4 -1
640 107 2 0 0.13304731690303626 2.3881133915641994 10.91462910531531 1 -3 1
556 93 2 0 14.042176995708415 9.011720323242708 17.207410563454655 -1 -1 0
510 85 6 0 10.878543546638774 7.499024536904133 2.8259804700565017 -1 -1 -1
428 72 6 0 5.341832305846794 9.509971239838304 6.7914732068346 2 3 0
429 72 2 0 6.308463961285267 9.580542234488314 3.1196610742911934 2 3 0
901 151 6 0 2.451631674803869 13.978935851533723 10.417033643447153 1 0 1
365 61 6 0 3.546485691128866 8.51750789778305 17.330390267674886 -2 2 2
364 61 2 0 0.5919927474833034 10.503225292544975 16.006311020084624 -2 2 2
562 94 2 0 11.792297520171232 2.0298260595722466 21.297993906691097 0 -1 1
388 65 2 0 6.259883162969223 16.56937294975541 3.3121351542447117 0 -1 0
441 74 2 0 11.418622489383807 19.523571477089117 10.380699272356319 1 -3 2
318 53 6 0 5.7251813051403415 2.3997472552195616 21.46718101316834 1 1 0
317 53 6 0 3.1031507652804327 2.9493168679039674 18.484149224869466 1 1 0
513 86 2 0 19.019204403517307 3.716658583761249 24.71810260741309 -1 0 0
514 86 2 0 15.983808958329348 5.317824851959907 24.913620689862583 -1 0 0
557 93 6 0 17.127538330416833 10.986080391272175 19.59006730864621 -1 -1 0
486 81 6 0 18.566538082823815 2.0999592436882963 3.4024784337342493 -3 4 0
416 70 6 0 14.625100359036827 4.970707099732865 12.383988058452063 -2 -5 1
902 151 6 0 0.6132334508422106 16.382445768224237 13.036784042584912 1 0 1
458 77 6 0 0.25856127369958415 2.4981269798904164 6.3797521228340885 -3 1 -1
977 163 6 0 1.7529107605286225 10.057302117891796 23.509939017770833 -4 -3 2
559 94 6 0 11.3995698641584 1.683679103920502 12.870211767421116 0 -1 1
512 86 6 0 19.731372795842574 0.12637013351850612 24.23195589736579 -1 0 0
316 53 2 0 3.9197876077842904 2.3575635725170505 14.816426822265626 1 1 0
1183 198 6 0 4.477624340554645 18.23919701366284 7.56656973279497 -1 -2 0
948 158 6 0 3.6269797543453968 4.970006453766756 3.470114354954664 2 4 2
952 159 2 0 4.521589215581993 18.698946839452695 15.25986642098162 1 -1 2
1010 169 6 0 8.504737541415803 7.2597474339291885 23.741672805021867 -4 -2 0
1009 169 6 0 4.991636431467374 6.605919994771875 22.605641550989976 -4 -2 0
491 82 6 0 13.6683750110852 12.939534070485259 2.78062311745421 -3 -2 -1
484 81 2 0 15.996936017012823 7.996839473043378 3.2410874281880635 -3 4 0
589 99 6 0 12.754452603861019 2.6865812612876994 3.8907480898347715 1 1 0
768 128 6 0 19.12060805970979 15.785504578152894 18.382494602925902 2 -2 -2
1158 193 6 0 19.321196796579102 18.164456599375118 8.689237216031783 2 -3 1
738 123 6 0 2.4997263882321086 14.747907456105875 18.154840348558874 -1 -3 1
720 120 6 0 1.0770257268099217 12.001966935420489 5.467065948496091 -2 2 2
459 77 2 0 0.0828039638482565 6.033529267160255 6.713533116507193 -3 1 -1
1138 190 2 0 1.0674312380245332 2.3322721244441746 23.027348475394636 1 1 1
415 70 6 0 16.968567068992982 4.3908760283006805 15.184608656393218 -2 -5 1
1062 177 6 0 9.387087493017273 1.0115577134196474 8.196322540246738 -3 0 0
880 147 2 0 13.4683027930948 19.586233111840013 22.947656614085687 2 -3 0
529 89 6 0 6.692805579467068 19.447875142354775 20.59225626472744 0 1 2
587 98 6 0 0.27043207937762553 17.849716380720626 1.3012471677223105 0 -2 0
533 89 6 0 0.13140335910875223 15.99849690584156 24.077510100874917 0 1 2
457 77 6 0 0.6035393896586806 1.9268284486911458 2.7928765960389175 -3 1 -1
347 58 6 0 15.73199661459346 15.68452952403468 22.79370265817744 1 -2 -1
348 58 6 0 19.146518748453943 15.348571145723692 24.367542611826757 1 -2 -1
530 89 6 0 3.288633174370228 18.9838209980894 22.434144059232583 0 1 2
946 158 2 0 7.573338768036419 2.2729161842225927 4.27026646613685 2 4 2
154 26 2 0 18.89243273870551 17.812684060864772 3.503011956674946 2 4 -1
947 158 6 0 6.88953717104637 4.686417594138615 1.311366528284448 2 4 2
490 82 2 0 14.150919807160188 15.599327852918067 0.26117863767230176 -3 -2 -1
945 158 2 0 6.265800680269205 0.05922805976762646 1.3086237871485438 2 4 2
905 151 6 0 35.86056234309012 17.90382591590156 5.717325310309513 0 0 1
904 151 2 0 39.235401931803594 16.39320466781826 6.196473908859492 0 0 1
906 151 6 0 35.76321815554023 16.07905847869482 2.5426431234908846 0 0 1
244 41 2 0 20.257778102477495 2.8040578813650803 9.208245774544322 0 4 -2
903 151 2 0 39.635245929201716 18.33266462125204 9.503376335354462 0 0 1
978 163 6 0 39.5041122311072 11.478832386414185 20.72912091824263 -5 -3 2
522 87 6 0 21.112622452881244 6.9259753304335225 15.518570431667436 2 -1 0
558 93 6 0 20.393868583927073 9.808044232472618 20.68563989709985 -1 -1 0
521 87 6 0 22.66380360984159 4.680013260662312 12.802336809922124 2 -1 0
767 128 6 0 21.098544179180326 13.150272028752152 16.979952344637688 2 -2 -2
766 128 2 0 23.44274351907525 10.397060208832958 17.630191364407505 2 -2 -2
363 61 2 0 39.37832983499297 9.56261665557723 12.721199299098934 -3 2 2
342 57 6 0 22.384433624284927 10.309662584361769 1.6828093167412093 -2 0 2
520 87 2 0 25.64837777767807 2.493445121330213 11.55250065475387 2 -1 0
737 123 6 0 39.875562403660105 17.183356862832966 18.316908893536517 -2 -3 1
246 41 6 0 23.368686623045097 6.19888264779112 8.205904228268642 0 4 -2
996 166 6 0 21.78419912814321 13.244125892759044 7.385296479536102 0 -3 1
736 123 2 0 36.00908972371713 17.20132886686738 17.98393677944219 -2 -3 1
735 123 2 0 34.60067854005236 15.059786001061509 20.998113908075794 -2 -3 1
727 122 6 0 30.16213352073945 13.634541333817152 0.23106972744844853 0 -3 0
362 61 6 0 36.151286474851496 11.424297399452888 12.383564672548038 -3 2 2
245 41 6 0 23.403643875998267 2.717733911170954 6.836836828190462 0 4 -2
517 87 6 0 33.3872790415204 1.7975310068298564 16.317850332182605 2 -1 0
148 25 2 0 29.520385999260668 14.164463445103738 5.076190888485476 1 1 -1
361 61 6 0 35.4153693453717 15.052217339410353 13.351564505327376 -3 2 2
168 28 6 0 30.834506995799853 9.445281111501256 3.235557143812064 1 -2 1
1178 197 6 0 25.77619279437787 15.508423582639693 9.962178248128165 -2 -1 1
268 45 2 0 39.24016833197015 6.5288192209793845 17.333320828782043 0 2 1
266 45 6 0 35.08876307926543 8.511726275868263 21.671843474700033 0 2 1
267 45 2 0 38.45505376303578 6.978562259695617 21.027899494838866 0 2 1
994 166 2 0 23.133447751616288 16.124391639909987 2.808443155713765 0 -3 1
733 123 6 0 29.805495851098605 10.930408790079698 23.297866310899217 -2 -3 1
167 28 6 0 27.141420981114315 9.201351757504982 3.6096379923572397 1 -2 1
734 123 6 0 31.108572995796212 13.466063419100728 20.59070204585164 -2 -3 1
166 28 2 0 28.03921847696722 5.530172280118269 4.622880068518095 1 -2 1
165 28 2 0 28.58298163288588 2.5595375836097203 7.24977190948488 1 -2 1
1179 197 2 0 23.574991740901854 13.063762948303722 12.158948596062562 -2 -1 1
164 28 6 0 30.363521273634944 3.1102841870293574 10.313918221465393 1 -2 1
163 28 6 0 28.13301061361282 5.965065361996105 10.740951721277904 1 -2 1
460 77 2 0 37.89343625460147 8.140370405995487 8.672401457906927 -4 1 -1
476 80 6 0 33.84238674566751 8.643984826732815 16.20352764388702 2 -2 1
475 80 6 0 32.1535416421124 6.020946289770541 14.05927687023465 2 -2 1
518 87 6 0 29.971104551493234 2.5583347604891395 16.241480623707602 2 -1 0
631 106 6 0 31.11010466863649 1.8110994477209785 2.7996586352915567 1 0 0
519 87 2 0 26.13413321463738 2.462400692632981 14.996836451314039 2 -1 0
265 45 6 0 32.83402153941303 6.6223522798662815 23.779720485535158 0 2 1
993 166 2 0 26.307567300646028 17.950434079818727 2.5306963873546318 0 -3 1
1140 190 6 0 34.39552433091609 3.3505775935830893 20.872360200607574 0 1 1
1139 190 6 0 38.20985116908894 1.741208062752433 20.67243285258872 0 1 1
474 79 6 0 37.30627539680904 5.778428713360582 0.8744856864150181 -3 2 1
728 122 6 0 30.734782587591155 17.204221286722397 1.0470709453657256 0 -3 0
477 80 2 0 34.48059236657804 12.394518755647711 16.9406705831687 2 -2 1
478 80 2 0 31.578612345497795 14.116967517746914 15.540290394700653 2 -2 1
461 77 6 0 35.160001173455875 6.258692880736636 10.434935796702366 -4 1 -1
1180 197 2 0 25.265801999649874 10.72754388048139 9.717068427811219 -2 -1 1
480 80 6 0 28.569976097232015 19.56047791674032 18.83397928547581 2 -2 1
1023 171 2 0 25.283062209641585 18.37556229416976 14.402676955575096 0 0 3
995 166 6 0 24.564008480356442 13.457663046646411 5.026742575859664 0 -3 1
269 45 6 0 38.11577024784184 3.9367245388902514 14.80971594930241 0 2 1
462 77 6 0 35.04613280794424 2.858013239710575 11.79956515257584 -4 1 -1
1181 197 6 0 28.66891652993557 10.364750269349548 8.254302212947957 -2 -1 1
1182 197 6 0 29.90946298743572 11.113952745819809 11.53206573603335 -2 -1 1
1177 197 6 0 28.758447505640916 16.147997535221933 11.743237766261421 -2 -1 1
375 63 2 0 29.90965724909011 6.726254652367838 19.380832106901767 1 -5 -1
374 63 6 0 28.83799597874629 8.495598986516264 16.276402144917274 1 -5 -1
719 120 6 0 37.91260121740343 10.402959640590527 3.662827280376214 -3 2 2
718 120 2 0 37.65133284885762 12.01597736936014 0.33272738722382955 -3 2 2
479 80 6 0 28.991565057989302 16.219406714175015 17.316576131909958 2 -2 1
149 25 6 0 33.33809879550542 13.431604717988908 5.017085338068857 1 1 -1
900 150 6 0 35.15320532573342 3.965762414313363 5.31390958521178 -1 -1 2
765 128 2 0 26.6166128362005 9.877578070474836 19.988553704998612 2 -2 -2
376 63 2 0 28.28558693324944 4.197966201547279 21.82210391123958 1 -5 -1
373 63 6 0 25.849148107352004 8.396386084320673 13.913043050945513 1 -5 -1
534 89 6 0 38.178939696306976 19.02270034098701 23.072943998147498 -1 1 2
936 156 6 0 25.126486268501832 2.6155371621788097 0.5969028723128594 3 3 0
147 25 2 0 29.229438057282287 17.77668787707543 5.878243835182807 1 1 -1
146 25 6 0 32.1539398693914 17.01758009638677 8.224520142456127 1 1 -1
1026 171 6 0 23.51495093832317 19.634310590369605 8.074960360582873 0 0 3
150 25 6 0 35.270140425194924 13.230035051840785 8.024984756835575 1 1 -1
270 45 6 0 38.120061784364935 0.09052061477141235 15.200754642747247 0 2 1
899 150 6 0 35.018202798217985 0.7474420317153341 7.033527684983663 -1 -1 2
836 140 6 0 23.908954625415305 16.410581966466008 18.335385312306023 -4 1 0
764 128 6 0 25.3407020959536 7.722880076428646 22.720092259626394 2 -2 -2
606 101 6 0 32.15712510604927 17.788698573460525 24.00418202766302 -2 1 0
377 63 6 0 30.72317469345799 2.6070319905781085 23.962803972141362 1 -5 -1
204 34 6 0 24.038103923751176 4.242894197303058 18.704202553336287 -3 -1 0
203 34 6 0 22.7817348173316 3.14060549518956 22.043982177026145 -3 -1 0
1022 171 6 0 22.201217817727667 17.834703959276887 12.452308522006945 0 0 3
837 140 2 0 22.280446984706707 19.836049204940778 17.401815987255517 -4 1 0
145 25 6 0 32.52656341859288 19.514778627754303 11.082318294581016 1 1 -1
835 140 6 0 24.02712577787874 14.579513299133419 21.68035382292932 -4 1 0
605 101 6 0 28.629154629903642 16.293950883845472 23.664102034974537 -2 1 0
341 57 6 0 21.58341656312866 6.565784477773704 1.7462336818088646 -2 0 2
1039 174 6 0 35.81731556108726 1.3605485109151472 0.49354053891194033 2 -4 1
152 26 6 0 13.051683056629907 20.624752926431835 3.4091955792683772 2 4 -1
66 11 6 0 17.887790265181017 21.379177445507743 22.862710821199194 -4 4 -2
560 94 6 0 13.393822196512552 39.520334450285375 15.180139207270233 0 -2 1
1085 181 6 0 18.63844309632642 38.634329057042045 16.49623862902185 0 -2 0
259 44 6 0 9.029689744379546 39.54552298268716 24.649551697327958 1 2 1
919 154 6 0 11.725403519063294 37.18522569730129 11.359505692171135 2 -1 0
920 154 6 0 14.04049965133971 37.35264209467502 8.149563872620057 2 -1 0
921 154 2 0 15.314272297107596 39.2247304524013 5.146298584130115 2 -1 0
1157 193 6 0 16.901882318603967 20.389442553056252 10.149791963090108 2 -3 1
65 11 6 0 16.84510278809276 20.16004960547582 19.294515882038244 -4 4 -2
1188 198 6 0 5.780179501795308 24.652112770505664 11.498422922941963 -1 -2 0
263 44 6 0 1.960104099404692 38.04695712599233 21.266328309560947 1 2 1
922 154 2 0 16.265944010865056 36.35931589715728 2.892628255306798 2 -1 0
264 44 6 0 3.2478970176005366 34.79403441529984 20.297615192390882 1 2 1
84 14 6 0 9.009664166364693 34.19717620037313 7.5783403121617 -1 -5 1
561 94 2 0 12.966907887269866 39.23784545327454 19.04477160836132 0 -2 1
1060 177 2 0 5.52222840273116 39.37396928456331 9.80741766515117 -3 -1 0
62 11 6 0 9.625670534197655 22.694855490759853 16.968341663324942 -4 4 -2
1061 177 6 0 7.524680571678072 38.395721623624404 6.598383857254105 -3 -1 0
83 14 6 0 11.560903717553465 34.43839030956022 4.967000636459051 -1 -5 1
82 14 2 0 9.799665731845225 33.158077102361965 1.6433692146142973 -1 -5 1
1113 186 2 0 9.193675165908063 33.60964749163788 22.200148831317147 3 1 0
932 156 6 0 17.81893869758475 34.09412293895359 10.356529610002429 3 2 0
741 124 2 0 12.370104340103323 28.889587687345863 2.34176275419285 0 -2 2
1112 186 6 0 10.971102300574753 34.97374863271548 19.397970172412865 3 1 0
1111 186 6 0 14.990151833888293 34.746877670648 19.098645868552673 3 1 0
1058 177 6 0 8.697535188521407 34.19077265302134 13.25661089171647 -3 -1 0
1057 177 6 0 8.3872588836678 30.62584407279409 12.156236535567281 -3 -1 0
931 156 6 0 16.009887424785358 35.00233603117931 13.652061731484862 3 2 0
1059 177 2 0 6.534674654920483 36.920808326621604 12.491135654481319 -3 -1 0
1184 198 6 0 7.054066541172084 20.72627836763847 8.381809433706177 -1 -2 0
1187 198 6 0 5.4857974711456725 27.795560570577816 9.150337909588632 -1 -2 0
313 53 6 0 6.970730907445499 37.67171831288154 20.353058999418227 1 0 0
1186 198 2 0 9.057202560906847 26.68874665838973 7.579239090929526 -1 -2 0
1185 198 2 0 9.537316117326288 23.398689586693273 9.32282790293655 -1 -2 0
321 54 2 0 1.057798223798213 37.620142110440526 3.9563214020931383 2 -2 0
63 11 2 0 12.021102280536175 20.306260332747364 18.829668007086426 -4 4 -2
443 74 6 0 13.410568948503357 24.167301433266967 12.644477150166272 1 -3 2
442 74 2 0 12.654218970274448 20.274080522146814 13.501155243079472 1 -3 2
61 11 6 0 5.777630288618854 22.92032468526877 16.651515804654895 -4 4 -2
322 54 2 0 4.436692399584591 34.9803382548518 4.909891886731103 2 -2 0
743 124 6 0 14.649636016581919 25.340375022598888 4.527869665419769 0 -2 2
744 124 6 0 14.04839291958091 23.88312805299489 7.691881743154216 0 -2 2
742 124 2 0 10.77099453680307 25.661108079584377 3.2908228157197024 0 -2 2
659 110 6 0 3.876486430899971 30.129943150226538 13.642986982176179 3 -3 -2
660 110 6 0 3.2035532209596234 26.8388069219558 14.993748340475422 3 -3 -2
324 54 6 0 6.92276822227307 30.895187679614722 4.494390951895302 2 -2 0
323 54 6 0 3.464082803640104 31.57382247414616 4.255890633743087 2 -2 0
314 53 6 0 7.3473246031547905 39.90620012751221 17.237048122638413 1 0 0
658 110 2 0 1.0965197475259105 32.649512588883724 13.178510020849162 3 -3 -2
315 53 2 0 3.668172642146675 38.91071044562721 16.44031082003796 1 0 0
878 147 6 0 8.054060631597261 24.25138589304633 20.861560108094725 2 -3 0
444 74 6 0 10.539722392418613 25.762968948530062 12.757257115919911 1 -3 2
64 11 2 0 14.552586262952282 22.35971310984633 17.270641920116827 -4 4 -2
1086 181 6 0 19.44597347168602 37.63608603472928 20.20961067204932 0 -2 0
1154 193 6 0 18.3885987205125 21.907849194297555 5.4649443817296675 2 -3 1
771 129 2 0 14.532669147955714 29.755728276245158 13.348485004450282 -1 1 3
770 129 6 0 12.829943622040666 32.189830449776 10.918719551817052 -1 1 3
769 129 6 0 11.856684193768547 30.36618807586268 8.206730023131108 -1 1 3
772 129 2 0 12.011565180752255 30.467145932057075 16.277424389489195 -1 1 3
773 129 6 0 14.435349328219422 30.38467246342833 19.25677930901326 -1 1 3
877 147 6 0 4.865567077995284 24.11518126514486 23.0157758413092 2 -3 0
233 39 6 0 0.15695209093710016 25.022218405147363 5.662338452868862 -2 2 1
740 124 6 0 15.26216816200176 31.33470979913089 2.362758050893536 0 -2 2
232 39 2 0 0.8402576628377493 21.396685222220523 6.319240433959202 -2 2 1
879 147 2 0 10.81170287206988 22.361816762612175 22.906052705528957 2 -3 0
618 103 6 0 6.377026916943599 32.39511823023367 17.03900099014639 0 6 1
231 39 2 0 1.4116613020679811 23.2723861511457 9.664124475092484 -2 2 1
774 129 6 0 12.634476560883892 27.37161878614537 20.395874579875922 -1 1 3
646 108 2 0 6.9670013209279675 22.330715132162407 1.667315179537247 -2 0 0
940 157 2 0 16.969995711060292 25.881751688914292 14.761604982376689 2 -4 2
941 157 6 0 19.621440908249756 23.177235759819002 14.372242545075405 2 -4 2
320 54 6 0 0.2017984952319148 35.09267980416625 1.4936102180314528 2 -2 0
642 107 6 0 2.1483775797936926 36.43418959546541 9.428556784370926 1 -4 1
617 103 6 0 4.508261696119229 29.568133275075432 18.43359654227392 0 6 1
616 103 2 0 6.798742882040386 29.171936103803837 21.29178170488833 0 6 1
923 154 6 0 19.65966102531779 34.90702059535035 3.4490786876320634 2 -1 0
739 124 6 0 15.872789307446704 32.76198477007947 5.86587271920841 0 -2 2
955 160 6 0 14.501589392784027 32.21698414164437 23.768071465691293 3 -4 1
262 44 2 0 1.9098875776578614 36.191364976384655 24.747781815212093 1 2 1
965 161 6 0 17.594425529852384 25.173503728820606 19.965182102635566 2 1 -3
933 156 2 0 19.08295728021198 36.688925095973964 7.948153616728758 3 2 0
234 39 6 0 3.5761703003829433 26.017576292003074 4.557786201713322 -2 2 1
939 157 2 0 19.849797933802826 27.314252673218835 12.967131574745446 2 -4 2
1156 193 2 0 18.3754555562096 23.863762797212186 9.513573768209834 2 -3 1
953 159 6 0 1.5607580869848057 21.15096328499629 15.927436165670224 1 -1 2
954 159 6 0 1.337795991791174 23.22208694419399 19.099974883291218 1 -1 2
223 38 6 0 16.362771279760363 28.62455994656858 8.491128167422703 2 -1 0
656 110 6 0 1.0693892462666448 30.563500801429168 8.647599351200444 3 -3 -2
72 12 6 0 1.2144210606504002 29.87962485235078 22.619087366565363 -6 3 -1
963 161 2 0 19.50489103329396 30.230407231748714 19.82947398655501 2 1 -3
224 38 6 0 19.971126877873182 29.645986151520948 8.944235100292017 2 -1 0
225 38 2 0 19.56775355688121 29.748669481196576 5.3464353230194845 2 -1 0
615 103 2 0 6.060391584310208 31.123161405112928 24.28813276123072 0 6 1
964 161 2 0 18.94733937612694 27.562143044080162 22.403418937063314 2 1 -3
588 98 6 0 0.8081650792517441 21.67578071012151 1.5388183204622932 0 -2 0
956 160 6 0 17.838976394006973 33.60022720153241 23.717961262453528 3 -4 1
957 160 2 0 15.75653770081266 36.76711738934129 24.092759578307884 3 -4 1
590 99 6 0 11.003853512958353 39.8042830018513 2.2386731193418536 1 0 0
944 158 6 0 6.228477308416285 36.64126105030282 0.0485518337456341 2 3 2
1153 193 6 0 17.40629317676635 22.737391285191144 1.8647785687733534 2 -3 1
833 139 6 0 7.527906506649503 27.843076495857844 0.6064658074302535 0 3 0
934 156 2 0 21.45900658258513 38.365604744254924 5.5944597184529785 3 2 0
935 156 6 0 23.196017063480795 39.33905463691555 2.4264192224591823 3 2 0
838 140 2 0 24.635371685899997 22.68592870479796 17.813557821907242 -4 1 0
541 91 6 0 37.413870753026096 23.947750336977933 15.833619679984738 -1 -3 1
542 91 6 0 34.315510999303854 21.576324232421804 15.723265954285608 -1 -3 1
543 91 2 0 33.11847442600557 23.90918093050435 18.542324718278806 -1 -3 1
1025 171 6 0 26.692276156809047 20.43370464050387 10.527108160241736 0 0 3
992 166 6 0 23.688468255015437 20.071541801512318 0.8923754178055908 0 -3 1
1081 181 6 0 30.417679193409615 39.58657791432331 20.049048794868295 0 -2 0
1082 181 6 0 26.54004705626744 39.192980811795344 20.521183608984355 0 -2 0
229 39 6 0 38.881940989634515 28.533089822115553 14.284330492858158 -3 2 1
641 107 6 0 39.13766648980823 39.13634337453459 9.492005117023417 0 -4 1
511 86 6 0 22.630934746987183 37.70719130163849 23.86129036622458 -1 -1 0
1155 193 2 0 20.813696367978384 24.67478026233878 6.598660183417325 2 -3 1
230 39 6 0 39.85565762052284 25.80187276853628 11.94765682685568 -3 2 1
657 110 2 0 38.55854206045878 32.500578969568906 10.45294974728304 2 -3 -2
966 161 6 0 20.66840593186199 26.374270187053696 17.817583491758132 2 1 -3
1084 181 2 0 21.9123953312964 39.67081480940519 14.646146953435888 0 -2 0
632 106 6 0 32.1521778143301 38.79559565717654 4.537900344967798 1 -1 0
1024 171 2 0 27.732957545398694 21.22719073843323 13.991557136897672 0 0 3
634 106 2 0 30.82865449686276 38.35073926635309 10.509903948134307 1 -1 0
633 106 2 0 30.940785181995043 36.690626769785354 7.175277457305043 1 -1 0
1083 181 2 0 23.817449314234203 39.21619792617168 18.130389694177172 0 -2 0
635 106 6 0 34.33491924594854 36.90216195656201 10.929178141229023 1 -1 0
1142 191 6 0 38.18780653453805 34.63409785487199 19.065559409027173 -2 -1 1
379 64 6 0 35.19799921195377 26.482934131965173 10.179673654376797 1 -2 2
380 64 6 0 33.48003068222636 25.516021822573244 13.429297085169663 1 -2 2
540 90 6 0 36.387703497667054 25.384081913204366 22.12735328345079 1 0 2
839 140 6 0 24.016070436405688 21.343680386452423 21.568325057286792 -4 1 0
123 21 2 0 31.209292394956304 22.7761411625508 5.882871099284277 2 0 0
703 118 6 0 27.39913830795843 38.191386323960444 3.5599731100841865 2 -3 0
38 7 6 0 24.25860736272919 34.489054708922716 3.5397403833125343 -3 1 0
536 90 6 0 24.88200409556474 28.134892075143995 22.715288202739494 1 0 2
122 21 6 0 35.01822885364523 23.08823601623061 5.527872572674591 2 0 0
121 21 6 0 36.43098232370859 21.684037890785536 8.787431577117301 2 0 0
381 64 2 0 29.94107156552325 26.81841334566207 12.458683088709472 1 -2 2
545 91 6 0 31.2499348396659 22.245900288183552 22.006361476154677 -1 -3 1
544 91 2 0 34.01481194277305 20.69402929606684 19.82444892628741 -1 -3 1
655 110 6 0 37.78500273457837 29.071319277886534 7.176464655362836 2 -3 -2
937 157 6 0 20.832314635697507 34.17871300834438 15.250373138436613 2 -4 2
938 157 6 0 20.00414104391428 30.44770958685435 14.777503505049662 2 -4 2
226 38 2 0 23.116827377932957 29.8401172149562 4.14160236963968 2 -1 0
538 90 2 0 29.96222478928768 28.219749809281566 23.637118762733916 1 0 2
537 90 2 0 27.504548954976304 25.323791631407282 22.221129437657225 1 0 2
37 7 6 0 27.275531939708248 32.983454388487665 5.723708878919496 -3 1 0
41 7 6 0 26.08401743686588 35.592109996071734 10.600355752520443 -3 1 0
42 7 6 0 24.441699118905657 38.70149791745651 9.583411249929277 -3 1 0
384 64 6 0 24.758651944626177 27.458384160628807 7.407917580660494 1 -2 2
1141 191 6 0 35.99364880792404 37.783857986606975 18.973503065205342 -2 -1 1
382 64 2 0 29.85926932720331 24.828953096870908 9.477769583945186 1 -2 2
383 64 6 0 26.590853756740184 24.371843008009115 7.726740628687975 1 -2 2
39 7 2 0 22.69964862411546 34.04320917887464 6.754446596456347 -3 1 0
40 7 2 0 22.842834713482507 33.52418782712659 10.25860696717053 -3 1 0
67 12 6 0 28.847674143547984 31.133324927883166 14.985930915283618 -7 3 -1
1134 189 6 0 31.94141395791552 34.977352664867595 17.43071094802232 -2 -3 -1
68 12 6 0 31.68982536381033 29.08459935089228 16.431191248946853 -7 3 -1
636 106 6 0 37.04683802706827 35.9293064679095 13.399833560010968 1 -1 0
566 95 6 0 32.56077417265238 28.102606441101262 4.4455998672847095 -2 0 0
565 95 6 0 30.456269619471755 29.429556090051527 7.304262810117001 -2 0 0
567 95 2 0 35.7919204317865 28.049559281057157 2.898907972119085 -2 0 0
71 12 6 0 38.38496640797268 28.9608816441283 20.08846138387244 -7 3 -1
124 21 2 0 28.70393341497271 22.057911889142783 3.0090657266992733 2 0 0
942 157 6 0 22.344588300085636 23.611200083606736 11.829923868765079 2 -4 2
125 21 6 0 27.6745432063446 25.727433626644142 2.0423458394936254 2 0 0
991 166 6 0 24.320127369012045 21.732733034533357 3.973645523201035 0 -3 1
962 161 6 0 21.791514792416688 33.02288531950392 20.22954609095274 2 1 -3
70 12 2 0 35.8428921021865 27.951500802568454 17.24499111660765 -7 3 -1
69 12 2 0 34.579545185281205 31.420911122477413 17.74533264616987 -7 3 -1
1132 189 2 0 28.278300962954205 31.441630178114465 20.220601449365205 -2 -3 -1
1131 189 2 0 26.302579513587297 34.69816676769179 19.552565319932175 -2 -3 -1
1130 189 6 0 25.623097022972484 35.45425112020808 15.991366653740158 -2 -3 -1
1133 189 6 0 30.883195942502198 34.102575250716264 21.02263351347007 -2 -3 -1
1129 189 6 0 28.28425493794894 37.128144245627354 14.362435635288518 -2 -3 -1
1175 196 6 0 30.493565570311016 33.113576980199895 11.13814212493038 -3 -4 2
1176 196 6 0 33.492889610150165 31.76767655884617 12.169569245656382 -3 -4 2
1173 196 2 0 24.89203963651459 28.773766706051514 12.716800999285844 -3 -4 2
1174 196 2 0 27.274039351109767 30.801345994413726 10.665233634445388 -3 -4 2
1172 196 6 0 25.60732317918956 26.183459681047946 15.147698319877358 -3 -4 2
1171 196 6 0 28.367120896660317 26.71909079847503 18.024782775836233 -3 -4 2
961 161 6 0 23.605630029245788 30.524560146868936 17.922972730795856 2 1 -3
1143 191 2 0 38.742544783198795 34.76531605544842 22.674891531600313 -2 -1 1
840 140 6 0 22.25717076092085 24.388599508239615 22.88851325875976 -4 1 0
1146 191 6 0 34.68230046701726 35.18192847873482 24.28833222533783 -2 -1 1
1164 194 6 0 26.485690383095765 32.8847007853019 24.98643880380442 -5 -1 0
898 150 2 0 36.08358368162241 37.35030593750936 6.15906101875437 -1 -2 2
704 118 6 0 29.39639095068273 35.594600577281696 1.0946617395760918 2 -3 0
897 150 2 0 38.130389449454384 34.57746717609709 5.822793846165723 -1 -2 2
895 150 6 0 33.40994041781551 32.23801004676597 6.018846441003478 -1 -2 2
539 90 6 0 33.47573936026491 27.71946032173425 22.650608465849658 1 0 2
896 150 6 0 35.65126074526315 32.634624137468 3.39657698059041 -1 -2 2
378 63 6 0 32.47962386005793 39.35014884387926 24.511850911779963 1 -6 -1
300 50 6 0 39.921326435778 23.326740831334664 24.707880992265743 -2 -3 -1
1144 191 2 0 36.940107295828795 31.407941244657795 23.497096335074275 -2 -1 1
227 38 6 0 21.61669570770853 27.542670548801368 1.8042591095088274 2 -1 0
319 54 6 0 36.31028405992369 36.615110641793066 1.239957109649601 1 -2 0
568 95 2 0 39.072790448326366 30.132173495446246 3.153494872608655 -2 0 0
126 21 6 0 27.54446815264986 29.44544038739662 3.0062867454023623 2 0 0
1051 176 6 0 32.792684694118854 24.18710246866746 1.4689704134655317 1 -2 0
1014 169 6 0 2.5205742706683365 12.713948523141678 27.306262748260142 -4 -2 0
515 86 6 0 18.000553016622664 6.793640648329197 27.737748485882356 -1 0 0
1137 190 2 0 0.720275980490071 3.7288499861068316 26.630089287802345 1 1 1
881 147 6 0 11.172947699773532 18.352114760778495 25.948309643979577 2 -3 0