LAMMPS data file via write_data, version 2 Aug 2023, timestep = 4024000, units = real

1200 atoms
40 atom types
1000 bonds
1 bond types

0 40 xlo xhi
0 40 ylo yhi
0 75 zlo zhi

Masses

1 131.2
2 57.05
3 128.2
4 101.1
5 156.2
6 71.08
7 115.1
8 129.1
9 163.2
10 99.06999999999999
11 113.2
12 128.1
13 186.2
14 147.2
15 87.08
16 137.1
17 114.1
18 97.12
19 103.1
20 113.2
21 131.2
22 57.05
23 128.2
24 101.1
25 156.2
26 71.08
27 115.1
28 129.1
29 163.2
30 99.06999999999999
31 113.2
32 128.1
33 186.2
34 147.2
35 87.08
36 137.1
37 114.1
38 97.12
39 103.1
40 113.2

Atoms # full

675 113 2 0 11.96837306118038 8.193325755477959 12.206608603888595 0 0 0
581 97 9 0 6.647050258406757 8.924622590053998 8.366805856207774 0 0 0
677 113 9 0 6.667459737614708 9.55729033953768 17.095697701322333 0 0 0
676 113 2 0 9.519206325629046 9.764397722985095 14.352594606857151 0 0 0
582 97 9 0 7.566270233241785 10.775723365831722 9.612719906577327 0 0 0
587 98 9 0 15.510154500636226 12.615764126921965 9.25552915179742 0 0 0
588 98 9 0 13.058024531154219 12.82111066149664 10.58927483980082 0 0 0
870 145 9 0 12.766227637091825 8.251560199957554 18.219189081162792 0 0 0
869 145 9 0 12.273404179209642 10.74379827616825 19.641547473801854 0 0 0
779 130 9 0 16.84339728976509 12.177171234094205 15.39387054360715 0 0 0
780 130 9 0 15.99219938200375 14.35042869437445 16.79135748432457 0 0 0
690 115 9 0 7.847335457726318 14.82607712850506 13.681341256744085 0 0 0
689 115 9 0 10.153958617380969 14.89769687370606 15.342781729526006 0 0 0
678 113 9 0 4.266766676478096 9.546741234249179 15.571258304548083 0 0 0
586 98 2 0 15.930776870651309 10.247246274556433 6.899940310789118 0 0 0
797 133 9 0 11.369338377995716 12.27142545484028 4.500042589723872 0 0 1
796 133 2 0 12.765806234877733 9.317348149837516 4.19969517657402 0 0 1
594 99 9 0 4.996353000867119 14.947321210894716 3.3631955556815445 0 0 0
711 119 2 0 6.554713209497788 10.068082610113828 3.3604000884362217 0 0 1
593 99 9 0 5.976264710239623 14.926984121274026 5.998247671780862 0 0 0
504 84 9 0 3.0689902737389305 15.289615772080088 17.23639570853997 0 0 0
712 119 2 0 3.091268340442245 10.308925996223858 4.62965189602778 0 0 1
413 69 9 0 1.9145572361389283 13.38810963835334 11.335286940426032 0 0 0
422 71 9 0 7.857554004576982 14.613398598054012 21.108116464763388 0 0 0
868 145 2 0 15.16289863683495 12.136769745692478 21.041473408630317 0 0 0
592 99 2 0 5.723948047953876 16.820974565448925 9.273629076885207 0 0 0
805 135 9 0 15.971976545486378 17.15620997131644 5.141843070500348 0 0 1
891 149 2 0 15.528482268452345 17.12483361554904 12.297065202801846 0 0 1
421 71 9 0 7.828860842531398 17.35297203716238 20.510166377219544 0 0 0
688 115 2 0 11.594741251260954 17.776843964154768 16.94841025197242 0 0 0
503 84 9 0 2.567521096102528 17.973537759820125 16.230160581955435 0 0 0
894 149 9 0 10.768477698655053 17.82093895184957 7.9223279929275465 0 0 1
892 149 2 0 12.38267137903644 18.71827662915907 13.021049756377018 0 0 1
502 84 2 0 2.638333779755513 18.35687925254497 12.914555952962688 0 0 0
893 149 9 0 11.362650821311977 19.041424129532178 9.945407408182046 0 0 1
798 133 9 0 11.103304183183313 14.502386272347634 2.799495898316766 0 0 1
984 164 9 0 17.015393649157723 11.848286105236854 1.9031460224502272 0 0 1
795 133 2 0 12.384831518135789 8.426816967668216 0.3773362257658609 0 0 1
710 119 9 0 6.84887350553333 9.842080874024472 0.20715560655969123 0 0 1
867 145 2 0 18.229261652528827 13.979638261063185 21.51633265541223 0 0 0
859 144 9 0 18.2505332191366 7.852499810702364 20.61224106578941 0 0 0
769 129 9 0 17.49609434457636 7.226471922932759 11.980487641585528 0 0 0
713 119 9 0 2.0860948763178144 7.307409427878003 3.98523041806804 0 0 1
580 97 2 0 6.8859586935317285 7.1065897669063025 5.750587647386251 0 0 0
579 97 2 0 9.698367659563326 6.969079747957265 3.3357356794613366 0 0 0
674 113 9 0 12.368328292637473 6.894791938411268 9.026494370616268 0 0 0
770 129 9 0 17.547303801481945 6.3598876782179 14.683298041650945 0 0 0
585 98 2 0 17.462668107717707 7.131197265141805 6.6713908244433275 0 0 0
584 98 9 0 17.23473255115392 5.714750251730295 3.7338068570279863 0 0 0
714 119 9 0 2.5965526183935808 5.780753629306922 2.3322213266827934 0 0 1
860 144 9 0 17.165259589293463 5.182199658159621 21.073085197042644 0 0 0
766 128 2 0 12.706102442149875 4.542537760280604 14.703636447235583 0 0 0
583 98 9 0 14.78098114441308 4.686228664708837 3.0314281568028396 0 0 0
673 113 9 0 11.380013088656918 4.499468814921651 7.763022944407799 0 0 0
768 128 9 0 7.72889750920413 5.0062478640345685 12.828096458875121 0 0 0
578 97 9 0 9.24179970705251 4.289631024441271 1.3339629429895217 0 0 0
767 128 9 0 9.55505151735817 4.2809091987315275 14.877944038098331 0 0 0
576 96 9 0 5.146663099383389 3.6727646108909306 18.833873454914364 0 0 0
890 149 9 0 18.801521215777804 17.161975346841704 12.039371858886764 0 0 1
983 164 9 0 19.38313246123092 12.294401227768468 0.9318024387367768 0 0 1
574 96 2 0 2.989405195910109 3.3072139223726444 13.918959629864318 0 0 0
765 128 2 0 14.303204220710528 3.1500458879544984 12.069703688505873 0 0 0
575 96 9 0 3.343623158797719 2.8716079067326796 16.956033021906798 0 0 0
942 157 9 0 11.677610639116391 2.7110789427576374 20.625246340209657 0 0 0
414 69 9 0 1.6401038100630547 12.461256182385824 9.010899155572629 0 0 0
572 96 9 0 5.031593617522887 2.7756636986154675 7.930790086875615 0 0 0
764 128 9 0 16.761446281126155 1.7789008646945854 9.883085971702254 0 0 0
573 96 2 0 2.910674437152868 2.074287248359644 10.307901386403062 0 0 0
571 96 9 0 5.754773708193657 1.5926166990302137 5.652650822771882 0 0 0
762 127 9 0 15.805495694834255 0.9084048264380358 16.49427543899596 0 0 0
318 53 9 0 1.279395346824539 6.924877636838236 10.573633836169266 0 0 0
679 114 9 0 13.810532735888707 17.636222647076583 21.865558319102103 0 0 0
240 40 9 0 3.055162150376779 11.161516943056801 22.122920199152894 0 0 0
763 128 9 0 16.44781170474152 0.7626039525535027 7.5446168930443545 0 0 0
605 101 9 0 8.16517288211756 7.086772382355849 22.757386222776212 0 0 0
325 55 9 0 1.6437706000874108 17.394594382209682 22.37839984257818 0 0 0
861 144 2 0 17.573624395878408 2.0678958177140108 22.967451099189663 0 0 0
148 25 2 0 1.8459019924377302 5.8404748207593045 23.298893455882414 0 0 0
423 71 2 0 8.912139062501643 12.326230572106661 23.244334293209917 0 0 0
149 25 9 0 1.1400030351690624 2.4942650844896286 23.14901933246766 0 0 0
771 129 2 0 19.780578515069625 4.647695536308469 16.656433320896333 0 0 0
806 135 9 0 17.233215420449895 19.143995134410375 6.616307102719343 0 0 1
866 145 9 0 19.612616283744757 16.909252949581983 22.91322778719159 0 0 0
359 60 9 0 1.6199464682351097 19.316899299601943 0.5768943727157022 0 0 1
441 74 2 0 9.928006346459515 19.454619405720905 1.0963491215607533 0 0 1
501 84 2 0 2.530811650697739 19.416095605510076 9.787830828719683 0 0 0
591 99 2 0 6.274582025798518 19.359584776191635 11.711114548710517 0 0 0
604 101 2 0 11.756108071045707 7.4013458504840655 23.6868616537928 0 0 0
687 115 2 0 14.722350964428657 19.43546933441112 16.26966490091714 0 0 0
680 114 9 0 12.789816281457847 15.91303095547819 24.2002229384704 0 0 0
500 84 9 0 0.7322666814053294 18.053462388846544 6.9924605387577605 0 0 0
442 74 2 0 8.352832579195914 19.64354369248787 3.7797802230455364 0 0 1
941 157 9 0 13.037357914145884 0.24760111232749585 21.635566567849224 0 0 0
603 101 2 0 12.260730800883788 10.630104741921997 24.95975045475627 0 0 0
606 101 9 0 7.044698170269583 5.047829600205762 24.52814174464083 0 0 0
270 45 9 0 1.0934852597000613 0.20722679872773853 0.9599760165335535 0 1 1
729 122 2 0 17.712886349530983 0.1373443243763099 2.715370623594232 0 0 1
778 130 2 0 20.16527979377121 11.452901653267697 13.810362445109115 0 0 0
988 165 2 0 20.114820416699764 14.24300340539419 5.729487302493816 0 0 1
889 149 9 0 20.780637020854236 15.802210230007283 11.075959711044755 0 0 1
986 165 9 0 20.25345593576201 19.99713073789292 0.9782595086460606 0 0 1
312 52 9 0 39.58743286620397 7.237480534394521 18.725646130372354 -1 0 0
756 126 9 0 21.020664439699082 0.39117400776465744 19.471114722373567 0 0 0
987 165 2 0 20.671165658152063 16.959248334394495 2.9060600564364365 0 0 1
989 165 9 0 21.053295484018722 11.120438240511113 6.937571648652365 0 0 1
777 130 2 0 21.611086838206795 9.87312160757457 16.788958573157455 0 0 0
775 130 9 0 21.81215900754844 15.429134225094876 17.30318670993619 0 0 0
412 69 2 0 39.30533478605016 14.618414832709899 13.549079111298473 -1 0 0
406 68 2 0 38.954217900903664 12.02847188019315 16.46379605470227 -1 0 0
498 83 9 0 39.03792991935322 13.498675342497357 3.3066295125259346 -1 0 0
317 53 9 0 38.62687780036177 6.914262107986014 9.49618862382516 -1 0 0
358 60 2 0 38.67160580568819 18.372600976924893 1.7464781382935655 -1 0 1
311 52 9 0 38.59915132671951 6.982412930823609 16.039003769961727 -1 0 0
405 68 2 0 37.736971120819135 10.938688821455019 12.789785462766048 -1 0 0
499 84 9 0 37.9680023823312 17.659296830423415 7.388547953097083 -1 0 0
407 68 9 0 37.90011130882984 13.120134387548957 19.307880661564962 -1 0 0
497 83 9 0 37.686209787408636 11.227195755455359 3.5770556017342687 -1 0 0
990 165 9 0 21.700133628745135 10.088332295115174 9.07762810201164 0 0 1
776 130 9 0 22.149434511061575 12.61637878734461 18.503067402981042 0 0 0
409 69 9 0 31.752714612884198 10.294759005772578 13.948614560823838 -1 0 0
1073 179 9 0 27.828190678981418 10.658821854182314 8.303303565923887 0 0 1
410 69 9 0 33.348789343061014 10.847937820107818 15.517726361827531 -1 0 0
403 68 9 0 33.92125100186838 11.421635677201746 8.249970263903567 -1 0 0
895 150 9 0 26.022351952089004 12.6142351304907 13.674313703703811 0 0 1
404 68 9 0 35.95153073928793 12.625433923789105 9.828581913310359 -1 0 0
1072 179 2 0 25.788988031768568 13.2830097954399 8.552558964810299 0 0 1
411 69 2 0 35.551516288982995 13.613088412663677 14.93286404764126 -1 0 0
995 166 9 0 29.86660794326064 14.781479924566383 18.700881319327287 0 -1 1
993 166 2 0 31.44009626007747 15.309371917414168 13.156912530334868 0 -1 1
1070 179 9 0 24.95711150561566 14.635723713910384 3.9122439057664833 0 0 1
888 148 9 0 25.31593575271026 8.31835320332856 3.426386732395256 0 0 1
1170 195 9 0 30.258429009108287 11.754296876005474 2.646671300040495 0 0 1
1169 195 9 0 31.899144101361397 13.805610146190551 2.788934835806575 0 0 1
1071 179 2 0 24.15699158123065 15.678098253865675 7.161864658191858 0 0 1
996 166 9 0 27.545651890415687 15.9045478901176 19.26564689873489 0 -1 1
896 150 9 0 26.293922581545143 15.711956026467844 13.195664473233064 0 0 1
994 166 2 0 32.07662146529051 15.794339098303 16.632920944632616 0 -1 1
992 166 9 0 31.132138659534256 16.144037375348447 9.841674961491814 0 -1 1
1168 195 2 0 34.21422717647626 15.76425336827031 4.097570691579166 0 0 1
408 68 9 0 35.42927809846638 13.23347890482934 20.5389077666924 -1 0 0
991 166 9 0 29.768139618894512 16.71336939111627 7.614978120673656 0 -1 1
897 150 2 0 25.368797000092545 18.808015572735073 10.946343777360699 0 0 1
6 1 9 0 35.60952003018666 18.18880629031227 13.328736969239726 -1 -1 1
1069 179 9 0 26.57568903415771 16.675626792410036 2.562135211886453 0 0 1
1167 195 2 0 34.52600896036913 19.063330593493884 3.0673643377846034 0 0 1
887 148 9 0 23.448392310633405 7.688301592755312 2.0599751565869457 0 0 1
1074 179 9 0 28.002564135206352 8.34800623626291 9.572278301286426 0 0 1
773 129 9 0 25.73095078889967 7.573810418320422 19.290145799461584 0 0 0
774 129 9 0 27.971928263651762 8.672440970275245 18.284269896676697 0 0 0
496 83 2 0 37.13472229888214 8.17180237326739 4.9888679849363795 -1 0 0
316 53 2 0 35.686220346386 7.458655317276527 11.235784247630459 -1 0 0
133 23 9 0 33.88173069107247 7.200131875344316 20.40544379910435 -1 0 0
313 53 9 0 31.994896916814778 6.636438782699362 4.882237466017118 -1 0 0
847 142 9 0 23.762684983578804 6.474890022715975 13.368832386666021 0 0 0
315 53 2 0 32.57271231427043 6.361015411876074 10.65947425370395 -1 0 0
310 52 2 0 35.365806399832806 6.098449771485191 15.486914735534123 -1 0 0
772 129 2 0 22.680079116408365 5.753411873116541 18.737264761255812 0 0 0
495 83 2 0 37.13721524692685 5.786852039820065 2.2465571404566473 -1 0 0
314 53 9 0 33.088252021084664 5.3387520905265395 7.153414833593144 -1 0 0
309 52 2 0 32.536994023829294 3.946867298087522 16.128660072048252 -1 0 0
912 152 9 0 21.906983543604092 4.379894527759466 7.49976225498562 0 0 1
910 152 2 0 27.492020850444213 4.325098398653299 6.371124046168155 0 0 1
308 52 9 0 29.65718430809943 4.251903107930233 14.07972150991535 -1 0 0
848 142 9 0 23.292935008213625 3.8011234800199563 13.385538385865551 0 0 0
911 152 9 0 24.54228267198905 3.8820883719640626 7.416129116107128 0 0 1
1097 183 9 0 28.073963697016822 3.494434559603823 1.1740983669060359 0 0 1
494 83 9 0 35.557047351101964 3.03835820924512 1.0721333965615947 -1 0 0
1027 172 9 0 29.74626697087803 2.5325947196819034 20.710653610360122 0 0 0
402 67 9 0 35.54338066026558 2.353190724292527 12.403768799607823 -1 0 0
855 143 2 0 25.37564363682376 2.25530983720949 17.84660982738997 0 0 0
307 52 9 0 29.108688914837387 2.2545268990699854 11.611377117233236 -1 0 0
43 8 9 0 36.48301563555166 1.8535289783064686 18.843748419588845 -1 0 0
822 137 9 0 22.016307669599264 1.9590152541626347 1.3605636143662547 0 0 1
486 81 9 0 38.93591581178353 1.9588829591941797 6.216356656508032 -1 0 0
401 67 9 0 38.188015757260395 1.4621745022535575 12.740311546426263 -1 0 0
493 83 9 0 33.60980901402369 1.6845384485595596 2.3348896872229568 -1 0 0
856 143 2 0 24.788351347148435 3.070914737694517 21.717014190278913 0 0 0
909 152 2 0 29.63671706437725 1.7559437909620075 6.062658059873067 0 0 1
849 142 2 0 21.64662935859267 0.9373063935514448 14.174786374598105 0 0 0
44 8 9 0 35.65705323760033 0.3595652925746389 21.140451559399597 -1 0 0
865 145 9 0 22.72078205460239 17.913339998238342 22.66076840031561 0 0 0
134 23 9 0 34.745564428227446 6.0649854819972635 23.073374959969104 -1 0 0
1033 173 9 0 30.502393454921542 11.085028248640985 23.443103789015154 0 0 0
391 66 9 0 34.34258277726811 19.25820882383316 19.870801082940417 -1 -1 0
949 159 9 0 24.491998321024035 12.185297025447621 23.92279794405666 0 0 0
392 66 9 0 36.953773034255136 19.31694775695035 19.119609580886387 -1 -1 0
5 1 9 0 37.7475578506152 19.755596367466012 13.050395039732422 -1 -1 1
1035 173 2 0 26.468886701812366 6.851260679496973 24.21543021527376 0 0 0
45 8 2 0 35.79773067050587 0.8176095008032372 24.063765580821542 -1 0 0
1034 173 9 0 29.133264782293367 8.09544709488795 24.338806565116872 0 0 0
147 25 2 0 39.61984979008198 7.770870915776978 24.394063657591296 -1 0 0
326 55 9 0 39.998458608821444 16.084676865148822 24.552536347740364 -1 0 0
950 159 9 0 22.40771161430527 10.415956772680952 23.976818654492433 0 0 0
129 22 2 0 34.51883463799036 16.48672572466833 24.591792326587868 -1 -1 0
857 143 9 0 22.452902959243552 3.815301927675266 24.181320354770293 0 0 0
128 22 9 0 31.428365612704074 17.474956398749725 24.751793207663233 -1 -1 0
127 22 9 0 28.588996056151508 16.64016291241375 24.91870739157284 -1 -1 0
886 148 2 0 21.13524260528024 7.164391871685676 0.003679474125689808 0 0 1
1096 183 2 0 27.244513524015105 0.6935244027114547 0.2737915187564581 0 0 1
686 115 9 0 17.82401414470405 20.231920280742514 17.594506979544 0 0 0
567 95 2 0 10.560318461818488 39.42796140653811 16.310738788426676 0 -1 0
565 95 9 0 10.908232266362333 39.556752601388354 10.755093005743914 0 -1 0
761 127 9 0 16.781039998590998 39.46346931754937 15.02796668512802 0 -1 0
804 134 9 0 11.203662947502037 39.14496492457419 4.52707763160644 0 0 1
569 95 9 0 6.6733088345206655 39.147320192068754 22.42131069950075 0 -1 0
728 122 9 0 15.607813185428729 39.24906861557861 0.13545758140322114 0 -1 1
940 157 2 0 16.122358324830873 38.522982690478756 21.236123751827694 0 -1 0
360 60 9 0 4.130481575701327 20.380650435752752 0.43581024094836246 0 0 1
590 99 9 0 7.919537894622448 20.975855633517533 14.929003889592174 0 0 0
628 105 2 0 15.23110109180027 21.306815656372233 1.529642203330162 0 0 1
443 74 9 0 6.0459915956972585 21.05398747536122 6.181301632162642 0 0 1
685 115 9 0 18.751846529791724 21.94158827558039 19.563232106828575 0 0 0
807 135 2 0 18.191226455860598 22.522607067212448 5.028103463133529 0 0 1
629 105 9 0 13.328777786991235 22.702455242604206 3.4510602468739293 0 0 1
720 120 9 0 10.758140250268426 22.812725089563685 20.02261074667121 0 0 1
505 85 9 0 4.315528817572762 22.67145715860619 19.89253164422866 0 0 0
816 136 9 0 15.440893611487123 22.76775258681028 12.153463569446117 0 -1 1
589 99 9 0 9.187525383052364 23.255266026362225 13.75058538126003 0 0 0
444 74 9 0 6.978954799737719 22.912230481223414 8.056017432233281 0 0 1
815 136 9 0 17.178949003063426 23.30299387327726 10.736110675557251 0 -1 1
719 120 9 0 12.784858244777912 23.280990219738104 18.75550239137838 0 0 1
630 105 9 0 12.712710360169218 23.45608655340369 6.001131802059057 0 0 1
385 65 9 0 3.1413544673463614 23.938700966210842 12.777048806039367 0 -1 0
718 120 2 0 14.95283145380937 24.779292104330736 16.715753824677172 0 0 1
445 75 9 0 7.989333842528091 25.046801767634125 2.1972095626337205 0 0 1
808 135 2 0 16.894646791023202 25.951586121550882 6.358635292481298 0 0 1
477 80 2 0 6.041561478277658 26.219425460499593 16.33958875668449 0 -1 0
446 75 9 0 5.554344674632021 25.897017291224483 2.5262531757524442 0 0 1
799 134 9 0 17.76436846128066 26.42068582963547 1.5112713991803841 0 0 1
717 120 2 0 13.557670585871755 27.103307734912626 14.426761605259784 0 0 1
388 65 2 0 2.4193261095653265 27.58258310186647 18.08379058177831 0 -1 0
715 120 9 0 11.003171416434094 27.562618910336845 9.753117065208922 0 0 1
478 80 2 0 6.3509295290918715 27.95467506352252 12.800556257030644 0 -1 0
665 111 9 0 17.181501700490635 27.80559721082877 20.58166779736458 0 -1 0
476 80 9 0 8.51041034592108 27.86592420762041 17.689751627540677 0 -1 0
566 95 9 0 11.066997331345021 38.711201649555925 12.97746049161763 0 -1 0
568 95 2 0 8.477651718856373 39.323252521815355 19.347644438280614 0 -1 0
491 82 9 0 5.02843397047694 38.4291195208236 13.305436340716941 0 -1 0
490 82 2 0 5.996210095754625 38.284401311876955 10.458351690144715 0 -1 0
492 82 9 0 5.852840044037024 37.51908711811559 15.593159787013336 0 -1 0
484 81 2 0 2.556122749628306 37.64980882691593 8.64036180769833 0 -1 0
489 82 2 0 7.117117623974385 37.032663907702386 7.618661792295089 0 -1 0
803 134 9 0 12.389710218914159 36.68999310060379 5.145054230501285 0 0 1
671 112 9 0 13.17661463500471 35.30829182312046 18.233567918427486 0 -1 0
488 82 9 0 5.720559110114926 35.27400742084813 5.252840001710791 0 -1 0
667 112 9 0 15.577535753253084 35.524772901800084 10.222775776650211 0 -1 0
670 112 2 0 10.418627204110804 34.45356575533995 15.887457570997608 0 -1 0
668 112 9 0 15.135223963139255 33.89412816318332 12.358822003767575 0 -1 0
481 81 9 0 9.767168126224465 33.44916168839544 9.496037851785287 0 -1 0
482 81 9 0 8.30327959163219 33.156520211496954 11.49832514991458 0 -1 0
669 112 2 0 12.766171501869321 32.671950211597895 13.952032031852887 0 -1 0
724 121 2 0 13.845902234253156 31.610141077857712 7.2129634386018155 0 -1 1
475 80 9 0 9.721112732606898 29.658973136547797 16.697585332092505 0 -1 0
96 16 9 0 5.596625093303209 29.379642896038106 7.948312904974333 0 -1 1
716 120 9 0 12.927643683315148 28.07644533735659 11.310735297100027 0 0 1
663 111 2 0 16.196473580890604 30.01276472917255 16.063320589824386 0 -1 0
664 111 2 0 14.343957790093695 28.260812379096514 18.771203864181878 0 -1 0
469 79 9 0 6.627519255286016 33.66380971492864 20.006002141023266 0 -1 0
672 112 9 0 13.912713364722432 33.033686988962216 19.838560674670273 0 -1 0
483 81 2 0 4.704953022967469 34.43959252155266 10.357859868301391 0 -1 0
723 121 2 0 16.182107593615303 33.02641784068297 5.252498597840396 0 -1 1
725 121 9 0 12.375225326198345 29.492347975959966 4.293678147098033 0 -1 1
726 121 9 0 9.966518458702248 30.967314981809555 4.035656906859414 0 -1 1
487 82 9 0 4.362936346378962 33.6313332732245 3.659632990726518 0 -1 0
479 80 9 0 3.3890711866348306 29.983635034741056 13.620911354337172 0 -1 0
480 80 9 0 3.659183643980925 31.996870180910065 15.2685086814438 0 -1 0
95 16 9 0 3.3806824494536474 28.085648265732104 7.63636197570116 0 -1 1
389 65 9 0 3.2335382980088334 28.74106777331603 20.83309042947174 0 -1 0
802 134 2 0 13.553000241605199 34.63436994858751 2.5018664580313885 0 0 1
801 134 2 0 16.03216832966903 31.688897993033095 1.351159014747536 0 0 1
447 75 2 0 4.626196484530184 29.047234436482224 1.755573871287785 0 0 1
809 135 9 0 17.839418651595 28.82416031694517 7.752445979775993 0 0 1
722 121 9 0 18.243578733338868 35.23424195441421 4.707680543629449 0 -1 1
800 134 9 0 18.46303706142894 29.39885648927778 2.025898893363819 0 0 1
662 111 9 0 18.705960600306216 28.64464690095671 14.48132889908343 0 -1 0
760 127 2 0 19.019951880287167 38.22268745004862 12.64827206333295 0 -1 0
810 135 9 0 19.100803550409832 30.698616333166843 8.91887056194117 0 0 1
814 136 2 0 19.646238497654934 23.733255327420107 8.47570659695752 0 -1 1
852 142 9 0 19.632493832616596 33.25368147134942 18.878578553693863 0 -1 0
851 142 9 0 19.398628362731284 34.4400672868882 17.035758021449226 0 -1 0
306 51 9 0 1.4121601157260608 37.60034383421189 19.8499487717812 0 -1 0
94 16 2 0 1.607732454828395 28.885994155757025 4.695782174830111 0 -1 1
386 65 9 0 1.5676686786898415 23.830720297938804 14.85376762604973 0 -1 0
470 79 9 0 8.38575560031034 33.16001358956885 21.73416090922976 0 -1 0
40 7 2 0 1.319981017296828 33.004724167378846 22.344081634924986 0 -1 0
939 157 2 0 17.58826981770344 35.952532286401365 22.95394022375801 0 -1 0
661 111 9 0 19.979249469972753 26.333264783288776 15.146874147684798 0 -1 0
506 85 9 0 5.27363024647368 22.37858910825158 22.91886149620797 0 0 0
390 65 9 0 5.026872742670714 28.356360512162308 22.930374217437603 0 -1 0
666 111 9 0 17.919082561475005 28.59855921914044 23.026170802887794 0 -1 0
379 64 9 0 11.39633341052644 27.787208278178234 23.35182339349219 0 -1 0
399 67 2 0 0.6120013690697814 35.27335860521913 12.928806211137378 0 -1 0
3 1 2 0 1.5487406070290117 23.3297148187232 8.059885663277056 0 -1 1
297 50 2 0 0.8339660372647691 25.304976385217476 23.398076994647422 0 -1 0
2 1 9 0 0.32327626251566954 23.47235789870782 4.898027617982061 0 -1 1
305 51 9 0 0.2582150134206496 37.4956517121482 17.319008576849086 0 -1 0
570 95 9 0 8.058131364642412 38.969464962299625 24.94375110107938 0 -1 0
655 110 9 0 15.871850791824484 22.995452053952643 24.596958613481622 0 -1 0
485 81 9 0 0.06352738793294321 39.276064520492874 6.896634372064032 0 -1 0
93 16 2 0 0.41469348484803337 27.656962744297484 1.6923003288652185 0 -1 1
397 67 9 0 0.03340285291010674 33.3262566680451 7.92930678400149 0 -1 0
41 7 9 0 3.270288773724423 34.46211643966676 24.982253452260096 0 -1 0
269 45 9 0 3.3286974245598735 38.505193875759616 0.19844276992014423 0 0 1
1028 172 9 0 29.034816793539193 39.95501616304244 21.813434590233566 0 -1 0
1086 181 9 0 30.164859723362902 20.328474469982925 15.657892144730262 0 -1 1
1166 195 9 0 31.306891921413772 20.477441402947523 2.262159246027019 0 0 1
721 121 9 0 20.01287458703874 35.52208594040424 2.596890434928215 0 -1 1
903 151 2 0 22.00566324406559 20.682821923141052 9.266973860837933 0 -1 1
730 122 2 0 20.937177620102997 39.58059601348903 5.599086941938958 0 -1 1
759 127 2 0 20.347131505987626 34.52116136598545 12.091056621482911 0 -1 0
854 143 9 0 26.310908566084997 39.41018820731599 16.14694692800618 0 -1 0
908 152 9 0 27.80703952237719 39.11122062957732 5.435881186031072 0 -1 1
1029 172 2 0 26.167434528979957 39.04304106205741 23.258949105388673 0 -1 0
400 67 2 0 39.88573247281169 38.804402751117244 11.857649473412888 -1 -1 0
755 126 9 0 21.479221995066567 38.376799331947595 21.095424838826556 0 -1 0
902 151 9 0 23.30546302609025 20.423457051896627 6.4841958041590475 0 -1 1
904 151 2 0 21.346339324638112 21.449592176355885 12.836059984179952 0 -1 1
906 151 9 0 24.477700865999378 20.954478714635073 17.64501982311506 0 -1 1
1085 181 9 0 29.698687312400587 20.86149538282978 13.44108870742476 0 -1 1
905 151 9 0 23.45050139144851 20.81955742141353 15.320874257790814 0 -1 1
985 165 9 0 23.05452424191577 20.977237819623184 0.20277627433105894 0 0 1
813 136 2 0 21.050402315438465 25.488544722698364 5.58552107833223 0 -1 1
169 29 9 0 33.3242360192561 21.382805611361732 7.884808838813997 -1 0 1
393 66 2 0 39.1735077297078 21.885385092640274 18.9311775076344 -1 -1 0
901 151 9 0 26.232239366462927 21.47267353038384 6.051340718996798 0 -1 1
1084 181 2 0 29.02326876629432 20.875289868697333 10.434838091367867 0 -1 1
4 1 2 0 38.90237954331362 22.102547103702378 10.515147339520999 -1 -1 1
931 156 9 0 28.984928423742858 22.102781590943497 21.541424834004108 0 -1 0
898 150 2 0 25.26396123410127 22.600298569166796 11.159938288206419 0 0 1
1165 195 9 0 29.659074377994145 22.456656212139613 1.0784028455502015 0 0 1
731 122 9 0 22.041091615355178 37.894766820019655 8.503883798037194 0 -1 1
850 142 2 0 21.576252238391568 37.08487562359478 15.403905514705306 0 -1 0
170 29 9 0 33.73299525581215 22.969302036384942 9.627936928472675 -1 0 1
39 7 2 0 39.633510474502884 32.540806085596074 18.792760048366745 -1 -1 0
1 1 9 0 37.42748969224141 23.312536092656096 4.236779347395817 -1 -1 1
387 65 2 0 39.8784876886653 26.897247625776853 15.86083628092604 -1 -1 0
398 67 9 0 39.434252511807074 33.46978368506339 10.494767277900602 -1 -1 0
88 15 2 0 39.01668722400847 31.460000119975813 3.1262810815527775 -1 0 1
394 66 2 0 39.112241522428285 25.37345724324448 19.577496991721016 -1 -1 0
89 15 9 0 38.24766580364463 34.56157353925754 2.30350938341899 -1 0 1
213 36 2 0 33.951560991346035 24.307557517087734 21.810010760650197 -1 -1 0
1083 181 2 0 28.78019074734552 24.449427402338348 9.465771774770248 0 -1 1
211 36 9 0 35.090437208302326 24.330682977024793 15.736312062888707 -1 -1 0
899 150 9 0 23.817905676309802 25.45551772708812 10.7642914188122 0 0 1
212 36 9 0 33.11642064999257 24.839379029996856 18.031263340060224 -1 -1 0
171 29 2 0 32.93418645334537 25.685242776595 11.292517078625671 -1 0 1
1176 196 9 0 27.510004949678525 26.01595075168748 15.52358637317373 0 -1 1
812 136 9 0 23.324864115891398 26.02611531764952 3.2399810914746703 0 -1 1
751 126 9 0 23.691810012834207 26.50026676928177 20.252939233306222 0 -1 0
1081 181 9 0 31.48798171488837 26.669808850941347 5.1260335286042285 0 -1 1
811 136 9 0 25.580362682822162 26.754395195984657 1.8727491493983857 0 -1 1
1082 181 9 0 29.455466996283473 26.744155983570085 6.966146068620073 0 -1 1
900 150 9 0 23.972943791356837 27.193615815070256 9.437746322068524 0 0 1
1175 196 9 0 28.978627681845175 27.50526583973451 13.891617334698346 0 -1 1
86 15 9 0 37.76003392670384 27.41199414507083 8.824381939118329 -1 0 1
85 15 9 0 38.07841779512046 27.52418268216586 11.175363451662266 -1 0 1
87 15 2 0 37.597745229108895 28.55576569660368 5.424483705355349 -1 0 1
395 66 9 0 37.39641345682281 28.003949043681803 20.425284064526185 -1 -1 0
38 7 9 0 37.254885226966294 32.115992416322676 15.835701215256323 -1 -1 0
304 51 2 0 37.76946490865836 37.16873801168035 15.500282763660255 -1 -1 0
301 51 9 0 33.59439278675038 39.01370038722517 7.9865465663562745 -1 -1 0
732 122 9 0 23.871433529555286 38.47040641506272 10.370765402572868 0 -1 1
223 38 9 0 32.369130915220225 38.70082416021741 15.7345777922215 -1 -1 0
907 152 9 0 26.12678569385645 37.57098355246345 3.7779067935306703 0 -1 1
302 51 9 0 34.959981482861465 37.143823668291 9.487659645580779 -1 -1 0
758 127 9 0 23.30885667707113 32.95556648579553 12.678008111041153 0 -1 0
1171 196 9 0 23.67643977214559 31.765766008864198 5.129574736455172 0 -1 1
853 143 9 0 26.466794518689525 36.6073926009915 17.23814047139421 0 -1 0
1089 182 2 0 31.763502332352935 36.019487793143504 4.13353497291859 0 -1 1
224 38 9 0 32.998160671345886 36.24090002398175 17.837883884293586 -1 -1 0
303 51 2 0 35.68776372832114 36.418581213896516 12.818905900821548 -1 -1 0
1091 182 9 0 29.149906935450694 35.86964061860798 11.14095979700501 0 -1 1
752 126 9 0 23.583278031713483 29.165632963674714 20.095186901994104 0 -1 0
757 127 9 0 24.515110100073976 31.61067824000731 14.716914189844026 0 -1 0
753 126 2 0 24.48301483779808 32.519905709198646 20.36425237176953 0 -1 0
1172 196 9 0 25.22984072645779 32.5919731840407 7.207465284170009 0 -1 1
1090 182 2 0 29.965736852244074 35.100988167138055 7.526924121152464 0 -1 1
1092 182 9 0 29.875413776329527 34.03763487827974 13.015864381133458 0 -1 1
174 29 9 0 34.18884374152608 32.09295853072925 6.463857097387958 -1 0 1
1173 196 2 0 28.078800543048942 31.180130585745882 8.420921797627667 0 -1 1
173 29 9 0 33.41046530914157 31.437575768882613 9.023336693905355 -1 0 1
37 7 9 0 34.80344867971316 30.745254629051768 15.01836637176884 -1 -1 0
1174 196 2 0 28.53515376489759 29.7696591078771 11.442407222408852 0 -1 1
172 29 2 0 32.66537630803383 28.71638189110604 10.605230822999022 -1 0 1
217 37 9 0 29.501319683019524 31.20972200963067 18.67474631065317 -1 -1 0
1087 182 9 0 29.213700791879265 32.08665649000651 2.601948676610574 0 -1 1
226 38 2 0 36.89055060536492 35.104506995534344 21.286160392551785 -1 -1 0
218 37 9 0 29.597227710493566 28.843438510052103 20.709577591671202 -1 -1 0
396 66 9 0 35.35777638751506 30.287722464646382 21.227446991257025 -1 -1 0
225 38 2 0 32.688830287023976 35.62754796502222 21.1301280440105 -1 -1 0
90 15 9 0 36.60140056256784 36.38511340335968 2.421338221006457 -1 0 1
1088 182 9 0 30.957878893784617 33.84839454875732 1.4607520618646606 0 -1 1
97 17 9 0 34.88160568501062 28.947433685334865 1.1049497708996479 -1 -1 1
754 126 2 0 23.65739462232458 35.88193315469324 21.410894613366583 0 -1 0
219 37 2 0 30.83569599937179 26.614551253969953 23.229230631957837 -1 -1 0
932 156 9 0 27.128269498457108 22.55808712662065 23.40651237575155 0 -1 0
296 50 9 0 38.65379168019816 22.61571563645823 24.033732348054738 -1 -1 0
1021 171 9 0 28.180623429695117 34.209570646531354 23.614300501478642 0 -1 0
227 38 9 0 37.15168820322876 35.528228096345245 24.328577125120812 -1 -1 0