LAMMPS data file via write_data, version 10 Mar 2021, timestep = 64458930

600 atoms
40 atom types
500 bonds
1 bond types

0 40 xlo xhi
0 40 ylo yhi
0 75 zlo zhi

Masses

1 131.2
2 57.05
3 128.2
4 101.1
5 156.2
6 71.08
7 115.1
8 129.1
9 163.2
10 99.06999999999999
11 113.2
12 128.1
13 186.2
14 147.2
15 87.08
16 137.1
17 114.1
18 97.12
19 103.1
20 113.2
21 131.2
22 57.05
23 128.2
24 101.1
25 156.2
26 71.08
27 115.1
28 129.1
29 163.2
30 99.06999999999999
31 113.2
32 128.1
33 186.2
34 147.2
35 87.08
36 137.1
37 114.1
38 97.12
39 103.1
40 113.2

Atoms # full

216 36 9 0 3.573253944682042 9.59475688607178 10.33343461526145 17 -1 3
259 44 9 0 14.108486688812041 9.589509721764102 14.538229427476411 8 16 3
391 66 9 0 6.057366147853764 15.820723903252144 12.959838789797914 -1 5 7
43 8 9 0 5.319199422829107 23.302777165359633 9.759422214949598 7 19 5
392 66 9 0 5.946969188161308 15.10095451680749 16.576483794652237 -1 5 7
88 15 2 0 13.761199132867489 20.21573390956308 16.90353384202253 9 1 -8
260 44 9 0 10.799073194575538 10.559096993937944 13.246854051041833 8 16 3
393 66 2 0 4.692749449389979 11.442681297870035 16.69698648817853 -1 5 7
263 44 9 0 17.52293245293282 15.503076748879865 15.316977189076802 8 16 3
262 44 2 0 13.68244582252948 16.446185457115313 15.086246285043938 8 16 3
261 44 2 0 11.728013055029306 14.453599635731285 12.844844528422312 8 16 3
394 66 2 0 5.9062965067020405 10.148219983026932 20.07314345420399 -1 5 7
87 15 2 0 17.06377033808708 20.897504236370388 18.447342797118107 9 1 -8
180 30 9 0 10.926361300593346 12.96613818361446 21.096215191812274 6 4 3
179 30 9 0 14.284929156008024 11.116895878138902 21.39055809267362 6 4 3
164 28 9 0 14.047333003528166 3.408293895637057 6.386555167298636 -18 8 -3
168 28 9 0 14.307888827105856 14.383447960567164 2.672477863671556 -18 8 -3
166 28 2 0 12.157852493600265 9.38361561572062 4.596511933629296 -18 8 -3
121 21 9 0 13.706747346476766 4.728672378339348 19.964543125688312 0 -2 1
122 21 9 0 13.419855842745552 2.338576714577602 17.092214577575835 0 -2 1
178 30 2 0 16.127432800163646 9.357191791614989 24.192724962048516 6 4 3
409 69 9 0 10.469756523211915 19.15054040557506 25.466688206711783 7 24 8
165 28 2 0 12.790171348414521 6.720915666174035 7.427919508520924 -18 8 -3
167 28 9 0 13.323861520063256 12.967089107087476 6.280966025253068 -18 8 -3
566 95 9 0 9.17536186983463 3.7883543822157915 1.6621215176931396 15 9 -5
395 66 9 0 7.002820068934454 6.685698710015694 19.780024785767708 -1 5 7
396 66 9 0 5.423352268412594 3.9235666502737647 21.547144454066043 -1 5 7
410 69 9 0 7.015577754496683 17.939595952348817 24.36644353085877 7 24 8
32 6 9 0 20.018830927697348 39.68787676902648 71.55822375310417 14 12 7
366 61 9 0 19.202284507244148 7.547030421549604 3.128143719888025 2 3 0
45 8 2 0 9.335490166463998 19.01816439034521 7.135966999616316 7 19 5
46 8 2 0 11.707848005610572 18.967947446956202 10.085645763223381 7 19 5
144 24 9 0 7.323315132344339 16.09922589051677 2.4248726160732796 -2 2 3
215 36 9 0 6.104241835573347 9.768225220526215 7.5623645532382415 17 -1 3
264 44 9 0 20.175642688694925 13.55055817053452 13.437897899354637 8 16 3
459 77 2 0 39.06393327400115 14.528309094486488 15.82304783359519 -2 2 4
319 54 9 0 20.30866586108328 6.286413910846526 17.88523860320457 0 -5 3
461 77 9 0 38.59922767219755 20.499886828191862 16.382875147702993 -2 2 4
565 95 9 0 6.543015839870505 4.238580474048865 74.28675015724531 15 9 -6
163 28 9 0 13.54683939474676 1.5395712402932973 9.747860241853163 -18 8 -3
529 89 9 0 6.900790216325381 2.8411877759975055 7.643893360638813 19 16 4
563 94 9 0 14.382486917878472 21.122796822725892 3.513486813878136 -11 2 1
86 15 9 0 16.76678773609904 19.759424693461618 21.90094025385278 9 1 -8
198 33 9 0 7.175347669766132 38.6908823160832 15.257084446410635 12 16 -5
197 33 9 0 6.837548718814748 37.74416049501439 19.044682511967547 12 16 -5
562 94 2 0 17.428735668148814 19.63258763857487 5.294981898466597 -11 2 1
177 30 2 0 18.14972326466795 7.072621076024409 26.356205127951707 6 4 3
176 30 9 0 17.986222070844054 3.2361086739746106 25.8248317558144 6 4 3
269 45 9 0 14.809536988207068 6.502236886903481 71.53782972443129 8 -5 2
143 24 9 0 7.784738250810401 12.768010406734875 0.7661381104407516 -2 2 3
560 94 9 0 21.831541108397666 14.363007574656994 4.498928491718726 -11 2 1
488 82 9 0 21.259107654955326 6.316023493556843 9.939798727621197 2 0 2
489 82 2 0 19.849039962439008 3.488717859027911 8.018735204824177 2 0 2
214 36 2 0 4.003829669655579 9.04786003540787 4.686127644992882 17 -1 3
487 82 9 0 24.352238501066918 6.698749557039361 12.127046718816894 2 0 2
320 54 9 0 24.116058096272045 6.7795544424215555 18.772253757003874 0 -5 3
213 36 2 0 1.5698402742317725 11.431003975974848 2.6347391833189713 17 -1 3
247 42 9 0 35.662806710312516 6.245389630558589 1.1293685439100256 9 -13 -8
248 42 9 0 38.68476163545376 4.8431994449114075 3.209180816333373 9 -13 -8
249 42 2 0 1.4601687946199848 5.162648031387441 5.779140998026862 10 -13 -8
322 54 2 0 24.364190713083133 12.554054450884312 22.034067605700113 0 -5 3
321 54 2 0 24.809888413559314 10.859953721059668 18.077519878136656 0 -5 3
374 63 9 0 37.03797887129893 9.734288988170926 8.15896669321133 0 11 4
323 54 9 0 20.762251365605337 13.791476438704679 22.89404168773462 0 -5 3
373 63 9 0 35.73691582804148 11.537475139409807 5.0805162873184155 0 11 4
375 63 2 0 35.45742741675868 6.200297084608738 7.601529339630268 0 11 4
376 63 2 0 31.781385873535115 7.296973049926546 7.311944442107758 0 11 4
377 63 9 0 31.216362466391846 8.923439163977243 10.659125031943658 0 11 4
559 94 9 0 23.968618796569427 12.279808223424633 6.761027780695146 -11 2 1
458 77 9 0 38.78042752377313 10.623326585984493 15.542004304624147 -2 2 4
416 70 9 0 0.257597401561701 18.13453712207459 9.734867526999777 6 3 10
457 77 9 0 39.36416702987642 9.610866407992937 19.046151879607677 -2 2 4
415 70 9 0 1.153353315289736 15.929357415598423 6.800849864473398 6 3 10
417 70 2 0 37.32220388100112 16.964354649578432 11.999756587040851 5 3 10
418 70 2 0 34.32392563735433 16.04556619220531 13.645993006677493 5 3 10
378 63 9 0 31.623343480467884 7.407971659095007 13.709245908456971 0 11 4
419 70 9 0 32.5523015706021 14.559175771016495 15.95192757262031 5 3 10
460 77 2 0 39.89004853067695 17.44037924385542 18.121137391626615 -2 2 4
420 70 9 0 28.961708421328545 13.503221655317882 15.813617634442902 5 3 10
253 43 9 0 27.301472986747964 17.349603163983055 1.224546966138846 -11 0 7
552 92 9 0 31.4248089115737 8.364757774667918 21.17572755393791 22 6 3
212 36 9 0 0.2275184437607497 13.19064258418559 74.4797103625943 17 -1 2
510 85 9 0 39.43874249327487 1.9078279651291703 19.48985711147565 3 -2 1
250 42 2 0 0.38986798594882266 4.124428278627843 9.525393615227962 10 -13 -8
509 85 9 0 39.537074325968184 39.72583102165017 22.6110529396121 3 -3 1
287 48 9 0 36.25095230458527 16.4032000053415 23.164052586826028 19 7 3
365 61 9 0 22.20491424043635 7.063364090070562 1.1218896182762874 2 3 0
364 61 2 0 23.25936648456303 10.450414841791751 0.21703609729131895 2 3 0
6 1 9 0 1.47847670967314 23.284260489706693 1.0456894185336119 1 -10 9
492 82 9 0 29.014784682581872 0.7354168151264946 8.914835852457038 2 0 2
55 10 9 0 31.7659986878533 21.82317355658403 14.88457076510315 7 8 3
330 55 9 0 23.162743170698217 18.502515580026078 16.918475614373676 -5 21 2
380 64 9 0 29.205844146100524 2.1372374434523995 19.014524419108167 3 0 2
286 48 2 0 32.42417893730741 15.309975750598678 22.96257182970785 19 7 3
288 48 9 0 36.76587232041286 17.85581624248212 26.87161211025041 19 7 3
561 94 2 0 19.351888438961165 16.415480570002323 6.635912812544801 -11 2 1
169 29 9 0 34.60680338333771 19.054442347553948 2.642613858835428 0 19 2
251 42 9 0 38.90848947935675 1.1236161381114864 11.311805608870502 9 -13 -8
301 51 9 0 25.272170814316702 19.32420162617634 7.503858729743557 -16 8 0
329 55 9 0 23.65670679781459 21.483892656921913 19.45017041057002 -5 21 2
285 48 2 0 29.484202143442943 16.263541688275982 24.264032773241595 19 7 3
337 57 9 0 28.34494700599539 4.274413833927246 3.0650565171413064 13 22 -3
211 36 9 0 0.5186142331693281 11.03291764618743 71.1911585652337 17 -1 2
363 61 2 0 26.46480475890632 11.527396031132245 74.12220439920036 2 3 -1
89 15 9 0 9.850537786716934 20.50505506206575 16.78616109108569 9 1 -8
411 69 2 0 3.795811230859437 18.842305332512712 25.955773077987875 7 24 8
44 8 9 0 6.02486575342208 20.461394026307882 7.620667568038743 7 19 5
90 15 9 0 9.994485570039442 22.820103268067964 19.67911823259928 9 1 -8
47 8 9 0 15.082767713426943 20.24534066870602 11.203142911043242 7 19 5
564 94 9 0 13.053250405885457 21.470096295710334 0.14190303509598326 -11 2 1
462 77 9 0 2.1412551822540795 21.799713505053457 15.822676129342938 -1 2 4
67 12 9 0 19.317718782271044 35.76075902483179 5.265682114820976 -11 3 -1
68 12 9 0 17.2186244911772 33.47826667070736 2.951923300767909 -11 3 -1
307 52 9 0 19.271780328897684 39.71256980086469 13.665083500813463 4 13 -4
567 95 2 0 11.872368946482585 1.7700907264977865 0.32591510910700694 15 9 -5
235 40 9 0 2.6997079747423234 32.105032626866276 9.598007547943855 7 -1 9
237 40 2 0 1.3055960220199354 33.7703100846364 15.025177699589188 7 -1 9
69 12 2 0 14.140767352420351 34.870015283740706 1.9746614932375797 -11 3 -1
123 21 2 0 12.548404227768605 38.60699597507601 16.63045351262313 0 -3 1
48 8 9 0 18.559152485265425 21.309870731725834 11.210127034609943 7 19 5
82 14 2 0 14.407864006780619 26.821469056051846 20.305302942176933 -8 2 -7
413 69 9 0 1.1142048631505093 22.39059986277401 22.63605569766326 7 24 8
412 69 2 0 1.719061332489036 18.77844376996214 22.70350400605256 7 24 8
238 40 2 0 3.5530811860188765 31.006289396929077 16.646028881788286 7 -1 9
239 40 9 0 6.218946662337187 28.669951402807783 15.485171566449578 7 -1 9
240 40 9 0 9.486783110582813 29.000258375026476 13.199550309628751 7 -1 9
530 89 9 0 5.142823199336851 0.05794809219854358 6.276538646117517 19 16 4
124 21 2 0 12.280558038685411 35.5899541885496 14.952474530811989 0 -3 1
125 21 9 0 15.18986775422288 33.66949037674843 13.488568207863636 0 -3 1
126 21 9 0 16.651072348178047 31.667144807637136 10.594326602534936 0 -3 1
83 14 9 0 16.100594371601005 27.70042087594913 16.988056452457908 -8 2 -7
71 12 9 0 10.972783750124247 36.326150537892374 6.3669584373620935 -11 3 -1
72 12 9 0 8.416892305858475 33.46563496958598 6.169828629994591 -11 3 -1
258 43 9 0 19.782469398082316 27.078990377559517 4.7873171832957935 -11 0 7
92 16 9 0 12.420170351622568 37.772315713308636 22.572307322439055 -13 6 6
79 14 9 0 10.44785839995317 31.990741787307904 19.244915322699335 -8 2 -7
81 14 2 0 12.944262119364517 28.218908664625133 23.645334393071234 -8 2 -7
80 14 9 0 10.824303508511326 31.28122079828475 22.680532332320148 -8 2 -7
70 12 2 0 13.11547523629599 37.94464799175775 3.7596548485121506 -11 3 -1
196 33 2 0 3.610632505545276 35.77150061373934 19.352694557303337 12 16 -5
84 14 9 0 19.447065581633336 26.440865042576743 16.27429874181625 -8 2 -7
93 16 2 0 15.237370012146775 36.56910840389227 19.841615267116484 -13 6 6
204 34 9 0 11.480891142553233 27.77280632307928 6.905150052962561 -7 -3 7
203 34 9 0 11.945498672971127 27.76765214771016 3.000067439402942 -7 -3 7
94 16 2 0 18.950538102924043 37.059619127004446 20.002390620382624 -13 6 6
78 13 9 0 3.7396824692489563 29.615407012887097 0.9292767802182982 4 -11 5
236 40 9 0 2.6711155909564637 35.4738764983671 11.871910150371324 7 -1 9
95 16 9 0 19.692150633050726 33.22872838771564 19.646142900684026 -13 6 6
195 33 2 0 2.7596782139991616 32.95046893461415 21.54000185858404 12 16 -5
77 13 9 0 1.5322427243462085 31.96361934802281 2.7024967166769005 4 -11 5
5 1 9 0 39.79161298445311 23.71469084096602 4.058828830936781 0 -10 9
590 99 9 0 7.2463514298854985 26.271003677188595 27.8812902569197 9 9 2
369 62 2 0 2.338029366353885 31.744202249454116 29.37438422190101 15 10 -1
370 62 2 0 1.561988668726193 28.245911284427084 31.19114000310142 15 10 -1
31 6 9 0 17.624124137185134 39.99052241106445 74.57519840407704 14 12 7
568 95 2 0 11.448115295190084 39.209518234670114 72.72255238212615 15 8 -6
490 82 2 0 22.842753408685184 2.372133791327033 5.972156783679825 2 0 2
491 82 9 0 24.962196734517434 0.7940816599648232 8.316360913724749 2 0 2
532 89 2 0 37.7358900246725 38.4495406660152 5.917104599538159 18 15 4
414 69 9 0 1.887505191158541 25.89237383507553 21.268420237381783 7 24 8
257 43 9 0 18.82069672610597 27.203596904396452 1.0328835438531492 -11 0 7
308 52 9 0 22.715665112077456 39.477860486425236 14.955095516007162 4 13 -4
309 52 2 0 24.109472847816424 36.134342727944784 16.589664613016776 4 13 -4
76 13 2 0 0.8995359106213086 35.215439169123336 4.095122123127367 4 -11 5
342 57 9 0 25.263204573937433 34.40830668064718 2.9611279241912216 13 21 -3
256 43 2 0 21.785715322065382 26.30110754777675 74.10562361146084 -11 0 6
194 33 9 0 39.25258099924709 31.986834339731224 20.84700968556663 11 16 -5
174 29 9 0 38.40411555178522 28.56837809988775 14.701236713675442 0 19 2
531 89 2 0 1.4507296826872251 38.793270677943504 6.563438720342844 19 15 4
193 33 9 0 37.443316283354065 34.44781395784375 19.05933362752285 11 16 -5
172 29 2 0 37.02285084298274 24.079063485959 10.767664961501742 0 19 2
252 42 9 0 37.05572118402835 38.58837177315054 13.681910966186248 9 -14 -8
310 52 2 0 23.555684343185025 33.51329944838047 13.82469173511332 4 13 -4
96 16 9 0 22.969194121216017 31.230551113323184 19.52688036571863 -13 6 6
311 52 9 0 25.01334497323646 33.83360572149421 10.559213538026043 4 13 -4
312 52 9 0 25.38934590975737 30.585268039687524 9.173943357477349 4 13 -4
533 89 9 0 34.46223784894412 39.01855993526361 4.3018138483906965 18 15 4
173 29 9 0 35.68596833314858 27.000066312803607 12.508117258928985 0 19 2
4 1 2 0 39.76011669739276 26.899367477071667 5.94704961087693 0 -10 9
1 1 9 0 34.42431014813041 33.07320909569784 9.860533138826812 0 -10 9
302 51 9 0 27.081576017050384 22.453032442099023 5.905438277484612 -16 8 0
56 10 9 0 30.469814488259104 20.85024573404125 18.10610388116019 7 8 3
2 1 9 0 36.14202229629637 31.622582359527094 7.053144668820717 0 -10 9
291 49 2 0 31.089775260214584 27.860853957587803 16.35899799461572 7 11 -7
294 49 9 0 30.442706101317544 36.609838387229864 14.35773396152025 7 11 -7
289 49 9 0 25.491889705437167 24.521430938397216 13.437204446047884 7 11 -7
171 29 2 0 35.64135553878416 21.466223797371377 8.000299390788756 0 19 2
290 49 9 0 27.659599456011634 27.260069964484217 14.79652637901487 7 11 -7
170 29 9 0 33.48964967574428 18.75926671910636 6.765163288153415 0 19 2
292 49 2 0 31.941989261791402 31.27866214683408 15.01872858179969 7 11 -7
3 1 2 0 36.11676739287172 27.94567473633303 6.144764129882335 0 -10 9
293 49 9 0 29.825903394270036 33.86317424025186 16.589400433832676 7 11 -7
341 57 9 0 23.916426560039543 33.00096081426845 74.7138740454079 13 21 -4
534 89 9 0 31.93396573585741 36.171077060910854 4.2383094273966435 18 15 4
379 64 9 0 32.262509529746396 0.7015952018067569 20.911210837246486 3 0 2
303 51 2 0 26.05572991901689 24.292040379632457 2.659703421250376 -16 8 0
328 55 2 0 25.167256565630478 24.852315694158676 20.156101676718 -5 21 2
304 51 2 0 25.87822022816401 27.83874002270588 2.1362110004792094 -16 8 0
57 10 2 0 29.5083417424711 21.16861853654618 21.760734691933504 7 8 3
327 55 2 0 28.668413414412612 26.326560476776674 19.9569726717894 -5 21 2
508 85 2 0 37.65980743587127 37.50303662846967 25.116801109141452 3 -3 1
325 55 9 0 34.84083401895052 25.560687078030316 20.843683367029904 -5 21 2
326 55 9 0 31.333139139581665 26.96285492776401 22.264156056436143 -5 21 2
305 51 9 0 29.520082456892634 28.539497470766488 2.986859290739623 -16 8 0
535 90 9 0 7.814549634459396 8.921195259920353 26.547165475708194 -8 18 3
498 83 9 0 2.3360564205077328 12.189474653888357 24.96920877759168 -4 10 6
91 16 9 0 10.607213377217533 0.10895490476174391 24.593391888671704 -13 7 6
540 90 9 0 15.496990714861976 14.428680406278932 28.286227583593774 -8 18 3
536 90 9 0 10.621895912129332 6.683176004400263 26.98771643201633 -8 18 3
18 3 9 0 3.216114807808487 4.104880837431812 28.016557998286 -6 11 6
464 78 9 0 1.8060670807904602 11.011013741623373 36.84580461209659 -6 5 7
465 78 2 0 4.413668489245553 13.577483927537303 35.68895022962184 -6 5 7
537 90 2 0 12.99366275442892 6.179371028628164 29.763818414185856 -8 18 3
466 78 2 0 6.443844223202813 16.872469602522163 36.9231995102782 -6 5 7
467 78 9 0 3.514077499135675 19.223868998491255 37.309485945975666 -6 5 7
538 90 2 0 15.935200113370206 8.480313364325662 30.714254832293513 -8 18 3
28 5 2 0 9.106929966228364 14.004320766227547 39.67679764617223 -1 2 -5
27 5 2 0 7.556636457551607 16.265168425266047 42.35627748000038 -1 2 -5
26 5 9 0 8.434080174394545 15.231833967904606 45.919335168967606 -1 2 -5
25 5 9 0 5.599332379183712 13.677984658617671 47.51246412107013 -1 2 -5
29 5 9 0 9.346255558949068 11.686802592842133 36.54747575793735 -1 2 -5
387 65 2 0 16.032529489766617 10.671844120682403 36.884378469115845 -7 -4 9
388 65 2 0 13.789046163240812 10.49441968836531 39.96586342339547 -7 -4 9
389 65 9 0 12.522734360664135 7.387255471046734 42.06518332377965 -7 -4 9
403 68 9 0 13.136364584335736 17.630013989338853 40.511835442498 7 21 9
390 65 9 0 10.90706220049011 7.089873875369596 45.478615205100546 -7 -4 9
539 90 9 0 15.572003032339703 12.387055818618894 31.455462626777884 -8 18 3
30 5 9 0 8.38674167111109 9.180685737059177 34.10272395168135 -1 2 -5
408 68 9 0 2.234450669787495 16.221926195398655 30.68471290960048 7 21 9
386 65 9 0 18.412928203532488 13.204261302628712 38.26682887175685 -7 -4 9
300 50 9 0 17.729635265842006 3.398095653734185 46.432170975391166 4 -2 3
13 3 9 0 6.192655391128872 2.4671971043591823 39.92052275772937 -6 11 6
17 3 9 0 4.925957938363782 4.263480928745207 31.268655064132894 -6 11 6
406 68 2 0 9.605066217413473 15.96806240245195 32.67672569802473 7 21 9
528 88 9 0 18.777707792478736 4.576968594837795 34.4428331201769 -2 8 4
527 88 9 0 19.03516402623973 5.638443734688716 37.675099249339915 -2 8 4
407 68 9 0 6.401210039866993 15.587146922239878 31.074830543753418 7 21 9
463 78 9 0 0.1346177545268399 7.628052405395775 35.84788087397085 -6 5 7
404 68 9 0 13.72779317424252 18.26124330739537 36.72714904301706 7 21 9
405 68 2 0 13.269893249075047 17.326130566702556 32.890286998316796 7 21 9
187 32 9 0 22.648426473444996 17.081713789229426 33.57541379509555 0 1 6
515 86 9 0 17.951178189890005 13.288140717392594 48.25293863122013 1 -12 -4
516 86 9 0 17.369274270215342 16.945552071091626 48.217909902777144 1 -12 -4
526 88 2 0 21.485807857299267 6.584670737963056 40.43213868172982 -2 8 4
14 3 9 0 8.094740125889583 0.16224767425242895 37.510933550473105 -6 11 6
15 3 2 0 7.405277120380668 38.093589424639774 34.22701662533036 -6 10 6
54 9 9 0 23.779295556805668 8.511868793507944 29.423805623346343 1 8 -3
525 88 2 0 21.94968335011079 6.800850810455471 44.03019251702541 -2 8 4
133 23 9 0 0.8260123084270906 15.517381247356564 43.47291937118227 -7 -5 1
497 83 9 0 39.635418207146586 9.631100098666739 25.43095022118552 -5 10 6
16 3 2 0 5.01265362642635 0.7162849064562467 33.01700876290292 -6 11 6
582 97 9 0 0.7476940542955486 6.34716519459999 49.46764958462339 6 2 4
85 15 9 0 17.506994655452893 22.543634278301298 23.997547085583108 9 1 -8
455 76 9 0 15.272386485222759 38.38307657696855 33.14442964871364 -1 1 -6
188 32 9 0 20.525123363464164 20.179065948774532 32.89477378313027 0 1 6
324 54 9 0 21.681741534462574 16.21703304257442 25.95855862512267 0 -5 3
381 64 2 0 26.469762924230967 1.8896874725354742 21.583752775796547 3 0 2
385 65 9 0 18.62497827161485 11.84005747365724 41.71774270943969 -7 -4 9
192 32 9 0 22.576047007740637 18.40851430887427 43.28059368650765 0 1 6
283 48 9 0 29.173263084403253 15.185070626535362 31.75164519334985 19 7 3
134 23 9 0 39.8090299606918 12.162710523339507 44.14923532228528 -8 -5 1
347 58 9 0 24.099865365551118 17.885976948279595 51.28332183931534 -16 8 2
496 83 2 0 37.147566710281936 7.462124392421053 24.217006825637352 -5 10 6
493 83 9 0 35.171159967732436 10.498893655725084 32.24466400989593 -5 10 6
271 46 9 0 24.361878264821108 2.19206431665549 40.620936314013925 12 12 3
494 83 9 0 33.665242693964466 8.712129799194466 29.42474005514925 -5 10 6
495 83 2 0 33.716199311702134 7.203768204454143 25.99629585029892 -5 10 6
53 9 9 0 23.596543233077963 9.001942698257437 33.36356308149476 1 8 -3
52 9 2 0 25.586600999274538 6.459762598086794 35.26024881762177 1 8 -3
51 9 2 0 29.379867838555338 6.847559686965951 35.424781393919545 1 8 -3
50 9 9 0 32.27192411351703 4.143600791310634 34.57613194658952 1 8 -3
49 9 9 0 34.42498482541726 4.533060958145074 37.45188127952953 1 8 -3
272 46 9 0 27.475362936370274 4.3862215015362285 40.97325836782142 12 12 3
136 23 2 0 36.320303990087325 10.57691124901209 39.173736696629284 -8 -5 1
135 23 2 0 38.256591202758884 9.373224722002462 41.924044604609584 -8 -5 1
273 46 2 0 30.499502355202534 2.9924189726814507 42.44695263831231 12 12 3
138 23 9 0 35.660833210442085 17.422890692271245 38.75603082860263 -8 -5 1
551 92 9 0 28.65886181250832 8.329910509567393 23.533486915477557 22 6 3
523 88 9 0 26.72336041955 9.635968193178815 48.423564569175305 -2 8 4
241 41 9 0 27.882143445812048 13.327972217602722 42.233876422377506 10 1 3
137 23 9 0 34.83030857391421 13.733317727238283 39.24706842851218 -8 -5 1
274 46 2 0 33.07897407286676 4.125665595040228 44.835876251213215 12 12 3
275 46 9 0 33.37162405461984 7.797850349599274 44.1808099277406 12 12 3
284 48 9 0 29.695401966066374 15.226736312075698 28.01991780631356 19 7 3
576 96 9 0 33.61150833605528 17.85277289188329 46.31634089787163 -1 -6 -2
276 46 9 0 33.68447919583597 10.999078387109344 46.273624311199534 12 12 3
524 88 9 0 23.74768547672012 8.98997147670535 46.28172567986184 -2 8 4
242 41 9 0 26.25278846890439 10.657507751607566 39.96663166498218 10 1 3
244 41 2 0 26.705879928808592 16.320417807013435 37.64390069811625 10 1 3
243 41 2 0 24.350944902874506 13.18415381501885 38.001775283978766 10 1 3
548 92 9 0 32.80691024704945 1.2631134151797139 27.959431147511864 22 6 3
550 92 2 0 26.997434092785895 4.909751103831725 25.678993036930528 22 6 3
549 92 2 0 29.70283442848128 3.403226218850695 27.97981657473093 22 6 3
578 97 9 0 29.336584800215366 2.685285964536131 49.21431743270128 5 2 4
348 58 9 0 26.821326053512085 16.87435091487469 48.683627976914764 -16 8 2
547 92 9 0 36.25103869925934 2.451802760066939 28.36393407999021 22 6 3
579 97 2 0 29.93934458241269 5.790962504977495 51.49332736208841 5 2 4
279 47 2 0 37.87499544801639 38.565656356017655 48.356678849298206 -8 -15 3
438 73 9 0 24.258907917653403 2.43866915075435 31.38734117011627 11 6 3
456 76 9 0 12.309018160394452 0.6237589502964049 31.893676656664876 -1 2 -6
468 78 9 0 3.837212310189267 22.034481010461857 34.9167109261832 -6 5 7
175 30 9 0 19.006773856899564 0.43376617139303963 27.53205894380845 6 4 3
299 50 9 0 18.261263423754514 39.88525857049564 48.05759386058761 4 -3 3
281 47 9 0 4.888649819350871 39.42802876917364 46.64063619790261 -7 -15 3
182 31 9 0 12.503559146709557 39.84012688294993 43.054624188415126 -3 2 -3
114 19 9 0 11.257421795075517 22.35964963865927 32.334004668589756 -6 8 3
589 99 9 0 4.642519399887218 23.57848302140891 28.224134733025267 9 9 2
298 50 2 0 18.279209805739654 36.86876350552844 46.29937316860611 4 -3 3
591 99 2 0 6.289780136697132 29.40587381794282 30.093359627260906 9 9 2
592 99 2 0 9.665160734998523 31.170485971160993 30.682577024852943 9 9 2
109 19 9 0 10.022785285128938 23.636965589144133 44.877584356098346 -6 8 3
557 93 9 0 17.422922563493376 24.422726542787384 49.50936918889949 -3 -5 1
371 62 9 0 39.285395960515814 27.101990970665923 28.51351985766878 14 10 -1
111 19 2 0 9.989431799439052 24.756094736565537 37.99704231639872 -6 8 3
181 31 9 0 14.331260495795542 0.7164785550775348 40.07344820636627 -3 3 -3
449 75 9 0 14.928476573424858 31.28840173723576 47.39447090338963 -8 -5 -2
7 2 9 0 19.973131865689425 26.574811087558462 39.49469136305302 9 10 1
450 75 9 0 15.269898221901256 29.60124356238202 44.52892267214728 -8 -5 -2
8 2 9 0 22.86425461338629 29.239361495347968 38.97431899705829 9 10 1
454 76 2 0 15.958519128129343 34.82528936008304 33.062915623112254 -1 1 -6
184 31 2 0 8.390622803913761 34.929930532532204 40.19454123537821 -3 2 -3
453 76 2 0 17.03489584944408 32.49155044727669 36.20093823067349 -1 1 -6
183 31 2 0 10.374575237165509 36.88833689362119 42.606478907297536 -3 2 -3
185 31 9 0 8.474622631099543 31.710229594501516 42.6363974212419 -3 2 -3
9 2 2 0 25.751624381823476 28.3175740530224 40.89959661686363 9 10 1
452 76 9 0 14.001054405490054 34.119740002980954 38.04574147373217 -1 1 -6
451 76 9 0 11.49742835361125 33.077161391091344 35.48826044360224 -1 1 -6
317 53 9 0 24.8706244290212 33.5087192866006 47.06565677836385 7 -4 5
594 99 9 0 15.58651370140502 33.713663625616725 27.3984125026417 9 9 2
593 99 9 0 12.084453330064752 33.43541418350206 28.712471916536558 9 9 2
113 19 9 0 12.484518691808994 25.929422285638562 32.390707281468316 -6 8 3
112 19 2 0 11.221755577171091 27.395647743179726 35.57461679872877 -6 8 3
110 19 9 0 10.185014944180462 25.030053486911186 41.58556625619579 -6 8 3
448 75 2 0 15.703554413464248 34.187897709613964 49.64636354952727 -8 -5 -2
433 73 9 0 18.925181373432096 28.2599754246541 32.06323571117142 11 5 3
546 91 9 0 4.000774189826189 20.75281735912887 47.60282491915157 10 -10 -2
541 91 9 0 3.5791792630768358 29.109676750902103 37.43617148396723 10 -10 -2
66 11 9 0 2.3507016488257233 35.71665059941725 40.69390787753071 2 -2 -3
280 47 2 0 1.096566158870447 38.71486635067531 46.238926722622956 -7 -15 3
297 50 2 0 19.7301082489007 37.8820452692303 43.0580940842477 4 -3 3
296 50 9 0 22.005742034405632 35.919871371618086 40.564511468391615 4 -3 3
368 62 9 0 3.3876607718000447 34.597972387759796 26.965326381755716 15 10 -1
542 91 9 0 3.535048805099493 27.042934559725765 40.836824025214774 10 -10 -2
544 91 2 0 2.7599373371062943 27.643358516900975 48.07516279049702 10 -10 -2
543 91 2 0 2.0195370013588354 27.392199233918145 44.55000921149575 10 -10 -2
367 62 9 0 5.713971731087779 37.03351520169167 28.258028409598673 15 10 -1
65 11 9 0 39.8056100147838 33.26376928810337 42.31493230848522 1 -2 -3
545 91 9 0 2.207807780864041 23.799552872571844 48.82442269575058 10 -10 -2
39 7 2 0 38.550793001046436 24.012784693470586 38.383126211235755 9 0 4
186 31 9 0 7.72354010723169 33.02560981056159 45.889569472303556 -3 2 -3
447 75 2 0 12.513625256957816 37.033539307620124 49.526956556859766 -8 -5 -2
354 59 9 0 9.115792775727018 27.89171524789081 50.8427988642684 25 13 4
382 64 2 0 25.010142676582262 38.40005482369413 22.43599196717083 3 -1 2
383 64 9 0 25.483116272568463 35.08721308392977 24.12029907462781 3 -1 2
384 64 9 0 29.08845186201302 35.206398041308624 24.308322322554716 3 -1 2
190 32 2 0 18.048614867598996 21.118034416030206 38.93812380280138 0 1 6
558 93 9 0 18.731731363947016 24.352620482010046 46.11391985428229 -3 -5 1
191 32 9 0 21.460196660600296 19.61151745569157 39.93329922389255 0 1 6
278 47 9 0 35.439610119596665 38.76373297125272 45.61465288304085 -8 -15 3
277 47 9 0 36.68067725880722 39.91924243012393 42.516573457105395 -8 -15 3
318 53 9 0 23.067179743155815 30.71010697657478 45.59725449059147 7 -4 5
372 62 9 0 36.762033997433264 24.356278878011324 27.76047445323066 14 10 -1
189 32 2 0 18.197242396980904 21.59342469131311 35.16876773859937 0 1 6
60 10 9 0 29.787263607209912 22.39267896064073 31.301767939374773 7 8 3
245 41 9 0 28.238801893186366 19.99533542093303 38.20711585058757 10 1 3
577 97 9 0 27.40049914500634 39.89978945562995 47.12726811006064 5 1 4
103 18 9 0 24.238848581026893 25.47032761049824 29.67967623580402 11 19 -2
434 73 9 0 21.00425013639684 31.35322573927848 32.15072321661507 11 5 3
575 96 9 0 34.99113022747979 21.362717650608673 46.918902324847714 -1 -6 -2
10 2 2 0 24.67123430419805 25.250296227126825 42.81689310774363 9 10 1
11 2 9 0 26.44490687383963 23.57623163398824 45.78845709584908 9 10 1
64 11 2 0 38.45639842616412 30.809349492971755 44.63764123694919 1 -2 -3
104 18 9 0 25.379016320708633 27.725612894326567 26.831752998733567 11 19 -2
435 73 2 0 20.65306621659604 34.57981090239756 30.52680730578177 11 5 3
436 73 2 0 22.620004157796824 37.27640209116202 31.34692840106835 11 5 3
58 10 2 0 27.803581695496838 22.60402330770537 24.878406273518586 7 8 3
106 18 2 0 26.810710494761565 33.65800349078371 31.360848530547724 11 19 -2
105 18 2 0 26.32215270329044 30.903007347673064 28.902489921031183 11 19 -2
59 10 9 0 30.160055658527448 23.01360233179853 27.614116509437572 7 8 3
295 50 9 0 20.531209221034175 37.151681059749876 36.97899713492648 4 -3 3
63 11 2 0 37.051458449065166 28.95165390051002 47.92742316923353 1 -2 -3
108 18 9 0 29.12146388275366 29.545212919350522 34.384446257812414 11 19 -2
107 18 9 0 26.981475907918615 32.715523936950454 35.10548799925794 11 19 -2
246 41 9 0 29.496823777573212 23.57151219726714 39.406238096770174 10 1 3
437 73 9 0 25.52241461333891 39.0569638429308 29.922912083337355 11 5 3
62 11 9 0 38.77873258430599 30.645418369399287 50.695608156583425 1 -2 -3
61 11 9 0 1.6762127870020436 32.961440835557646 49.654500108532154 2 -2 -3
37 7 9 0 36.60639221733552 29.23971052137298 35.97923563913965 9 0 4
507 85 2 0 35.06905771839743 35.13849248907676 25.300917624668124 3 -3 1
234 39 9 0 37.04078313604478 35.27707741996713 31.1209466921712 10 -5 -3
505 85 9 0 33.005641855228326 30.3404224886487 28.419574786174742 3 -3 1
506 85 9 0 35.14966631975778 31.469918115320805 25.471072031682834 3 -3 1
232 39 2 0 38.166840930292295 39.059239455151435 36.002002471455306 10 -5 -3
233 39 9 0 39.78624628702876 37.50980349768218 32.94859425843871 10 -5 -3
42 7 9 0 31.82033674282705 30.58491531277486 41.46892808509535 9 0 4
41 7 9 0 34.186093304235705 27.32737757144331 42.17440950420141 9 0 4
40 7 2 0 37.10204816740067 25.239588106997914 41.6795997935208 9 0 4
38 7 9 0 37.02518098159365 25.85674563445519 35.160870199760836 9 0 4
230 39 9 0 31.914209169494487 37.27952237613608 38.619247985888556 10 -5 -3
231 39 2 0 35.03517964425354 36.86188019195269 36.32448258278545 10 -5 -3