           6
Energy of minimum      1=    -3.140499612     first found at step     6328 after               493418 function calls
LA        -3.6840291630       -2.3388113183        0.5872352220
LA        -1.1213785532       -1.7832298962        3.3498267551
LA         2.2992951254       -0.9003087174        1.9222155657
LA         2.1645134645       -1.2673984919       -1.8710449372
LA         0.7702191578        1.9537593551       -3.3538522120
LA        -0.4286200315        4.3359890687       -0.6343803937
           6
Energy of minimum      2=    -3.140499612     first found at step        0 after                   23 function calls
LA         3.4416758187        0.6252736860       -2.6741072855
LA         3.6752013966       -1.3497152774        0.5743762702
LA         0.2597267152       -2.6286758017        1.6777458950
LA        -2.2693125372       -1.8683469824       -1.0731824116
LA        -3.5171107177        1.7034884007       -0.6219358651
LA        -1.5901806757        3.5179759748        2.1171033971
           6
Energy of minimum      3=    -2.853597878     first found at step     2633 after               205441 function calls
LA        -2.4617597625        0.1420979950       -3.9782803820
LA        -1.5055932007        2.9871862619       -1.6311214420
LA         2.1815455763        2.7505784227       -0.7093144477
LA         2.9956659434        0.1620357431        1.9564454887
LA         1.1884370919       -3.1656130318        1.5547220879
LA        -2.3982956484       -2.8762853908        2.8075486951
           6
Energy of minimum      4=    -2.853597878     first found at step       29 after                 2215 function calls
LA        -4.0106454025       -2.2238953093       -0.9360549717
LA        -0.8362338197       -3.5594365316        0.6940916514
LA         0.3850146524       -1.1435087587        3.3722533088
LA         2.2424224661        1.8999948764        2.0468312517
LA         0.6752802801        3.5130954675       -1.0260625775
LA         1.5441618236        1.5137502559       -4.1510586627
