LAMMPS data file via write_data, version 10 Mar 2021, timestep = 260024000

60 atoms
40 atom types
50 bonds
1 bond types

0 40 xlo xhi
0 40 ylo yhi
0 75 zlo zhi

Masses

1 131.2
2 57.05
3 128.2
4 101.1
5 156.2
6 71.08
7 115.1
8 129.1
9 163.2
10 99.06999999999999
11 113.2
12 128.1
13 186.2
14 147.2
15 87.08
16 137.1
17 114.1
18 97.12
19 103.1
20 113.2
21 131.2
22 57.05
23 128.2
24 101.1
25 156.2
26 71.08
27 115.1
28 129.1
29 163.2
30 99.06999999999999
31 113.2
32 128.1
33 186.2
34 147.2
35 87.08
36 137.1
37 114.1
38 97.12
39 103.1
40 113.2

Atoms # full

25 5 9 0 9.340857713182611 9.12426787642124 14.737946200579815 -16 -20 14
26 5 9 0 12.351258912789246 11.212620757259655 12.938872259317739 -16 -20 14
41 7 9 0 5.76365431100946 4.181286084205303 10.773193520994834 28 29 5
42 7 9 0 3.1044488829008454 1.480487785644713 10.683143367322002 28 29 5
40 7 2 0 9.230162352097372 3.4412054084036057 11.445446438637369 28 29 5
39 7 2 0 11.686000405811368 0.6436403391835797 10.975036405779003 28 29 5
27 5 2 0 15.81093888269522 11.879769466787257 14.127590782876617 -16 -20 14
19 4 9 0 17.019914855528548 9.911233561667643 8.032292511810127 -9 -16 10
30 5 9 0 16.185235171625713 1.3370414416251328 14.62350558434566 -16 -20 14
60 10 9 0 4.741123527396144 7.394531344677217 0.8018132928781746 27 69 22
58 10 2 0 0.6756271749379965 7.370658079846636 7.085469353986147 27 69 22
59 10 9 0 3.502770018240946 7.063204825598386 4.553533335438438 27 69 22
57 10 2 0 0.8795702483897068 11.021966264315282 7.890771328238271 27 69 22
49 9 9 0 11.577905433048937 6.5688305518163626 6.440536226441546 71 10 48
50 9 9 0 13.09396939278928 6.048030569799453 2.913012315405217 71 10 48
51 9 2 0 14.502593716583815 2.5664044548032496 3.710659882255185 71 10 48
29 5 9 0 18.40499291096721 4.645582747355595 14.235268647485105 -16 -20 14
28 5 2 0 17.40664249594092 8.516792042764271 14.044294206048582 -16 -20 14
56 10 9 0 2.8567214586140373 13.205852685863423 10.47437064511299 27 69 22
55 10 9 0 2.463065365605753 11.80165156962198 13.715719084838504 27 69 22
48 8 9 0 6.191557524792863 0.2526628285304215 4.21863235928003 -69 83 -26
52 9 2 0 17.703587819654604 2.6549134602084217 6.013615440402012 71 10 48
23 4 9 0 28.637583869164455 7.684752508607775 3.6498958101154177 -9 -16 10
20 4 9 0 20.296535670666504 8.016458312741618 7.460700226276915 -9 -16 10
24 4 9 0 30.141083513731317 7.255635623987782 0.16966628815608295 -9 -16 10
22 4 2 0 25.019261655745208 8.487555225891933 4.637715704382854 -9 -16 10
21 4 2 0 23.878483062288943 8.228754800240804 8.317431260987863 -9 -16 10
9 2 2 0 37.361507752871645 7.36795532739293 0.9069525948591886 34 -84 42
10 2 2 0 36.35419576858071 4.068553245425215 0.1085139136619091 34 -84 42
8 2 9 0 36.23180020422704 10.943266015699155 0.3407426314586949 34 -84 42
7 2 9 0 38.690384064321 12.5871554816665 2.4657132669883683 34 -84 42
54 9 9 0 24.151124626503922 1.3103328049323346 9.187223350839599 71 10 48
53 9 9 0 20.636816846499823 1.1180658964345307 8.397581611079126 71 10 48
18 3 9 0 23.83894803181096 3.340387550730726 1.442962630967205 -24 49 33
38 7 9 0 11.943998718368471 37.36091574574236 9.365018171406064 28 28 5
37 7 9 0 13.896691484295863 37.44628334692602 5.836522517045135 28 28 5
46 8 2 0 5.822544254852744 34.27873938888053 5.2155349388848 -69 82 -26
47 8 9 0 6.970011721951609 36.75740294908574 2.9058233611793076 -69 82 -26
45 8 2 0 4.817203397475273 34.40284206619564 8.884185435393372 -69 82 -26
44 8 9 0 2.310806899562782 34.02210511148291 11.475712801376229 -69 82 -26
13 3 9 0 18.23524584187486 38.46518674001229 0.9720934916677273 -24 48 33
43 8 9 0 39.225929635469484 35.440315205091075 12.261541297579187 -70 82 -26
4 1 2 0 10.772059113097036 30.306877387825125 35.96399038660833 12 19 11
1 1 9 0 16.56249926266993 32.05742364882709 36.678102797890084 12 19 11
2 1 9 0 15.022138849371084 35.03379747279925 38.3788344029215 12 19 11
3 1 2 0 11.150576677431056 33.928273235221106 38.083470617309395 12 19 11
5 1 9 0 11.460140232124171 26.599885152436265 35.63354525810505 12 19 11
6 1 9 0 10.476036438230835 25.698006918092425 32.01278022379247 12 19 11
34 6 2 0 1.585953371202573 18.949902922587103 62.347897023759174 -26 -24 10
33 6 2 0 0.7316844249669973 15.304666197550278 62.92333035518966 -26 -24 10
14 3 9 0 16.611353549811756 0.11688049560802957 73.31122729278991 -24 49 32
15 3 2 0 18.040065781882518 1.0237312467062674 69.96647111961991 -24 49 32
11 2 9 0 33.68410533605582 1.6642904636576845 73.46631650441478 34 -84 41
17 3 9 0 22.82228263616683 4.2783256320760294 72.99784098381672 -24 49 32
16 3 2 0 20.757490906422827 3.409953098961609 69.63226236024693 -24 49 32
31 6 9 0 38.01998809067796 9.577205504272023 62.25324855129196 -27 -24 10
32 6 9 0 38.62253216430816 13.24806137041056 60.38269397132194 -27 -24 10
36 6 9 0 3.108412519182206 26.10492960558493 61.777843503767016 -26 -24 10
35 6 9 0 3.714128056723364 22.152205780427945 61.727911692526426 -26 -24 10
12 2 9 0 32.33794600278336 38.285877368741474 72.7799471072333 34 -85 41

Velocities

25 0.00012659226550554138 0.0008759105343277985 -0.0001733238672106597
26 -1.408856453738272e-05 -0.0006036075775086499 -0.0012041261538727453
41 0.0012363058575992206 9.934010564458453e-05 -0.00014626352047900402
42 0.00046194718123600595 0.0006893557070830283 -0.0010834261622295926
40 0.0018493953194913058 0.00021680493256351352 -0.0005438602840693084
39 -0.00049981986144033 0.0013324419761829719 -0.0024575432282062494
27 0.0026366149202859514 -0.0003720905322969493 -0.0007558529705599839
19 -0.0016140139575047553 0.0017415812674919924 0.0005794239173080451
30 0.0011960612894098424 -0.001496525391731861 -0.002061507582975411
60 -0.00040436271842475926 -0.0014087697400412954 -0.0013264096160410849
58 -0.0007204623567528707 0.0010687389387214444 8.963022785027731e-05
59 -0.0018217584766423035 -0.0004171038351310826 -0.00026404796201692635
57 -0.0006118098251104839 -0.0007372294258248984 0.00045848995074637927
49 -0.0023869375368641595 -0.0008972763441079036 0.0005565092817093149
50 0.00117008479215263 0.0021505338954133633 -0.00042903741915044434
51 -0.0015119856869844992 0.004250788479015878 0.002203069701647918
29 -0.000706575749180521 0.0017894870292569935 -0.00057981951240424
28 -0.0003093920237636495 0.004790965289349616 0.000384255001271128
56 0.0019003098127114864 0.0016506502859150163 0.0018018130220306683
55 -0.0007877044658662063 -0.0004679671765885492 -0.0003590166091839894
48 0.0013943397697500305 0.0019150473604711046 -0.0034020957480624847
52 -0.0015150462766474813 0.002002039209134871 -0.001103343480220673
23 0.0020893587027611665 0.001346330403621108 0.0009730760025985515
20 -0.0004384234452204231 0.0004199380194484382 0.0003448940375745578
24 -0.0009296423967026855 -0.00033976463908728553 0.00021902665947068483
22 -0.00040324105984438946 -0.0009317736845359492 0.0006977960211347335
21 -0.004308919148548379 -0.0010702057124726853 0.0007237302650183451
9 -0.0037205904981420144 0.004313490689524858 0.0017571314364280746
10 -5.195988906796837e-05 0.0024935231598673404 0.0029959239152328727
8 0.00265226412372601 -0.003200875504328305 -0.0025720668805264972
7 -6.177966459119241e-05 0.000648664901372478 0.0006726746331965713
54 0.0003816271432970823 0.0005921078507811342 0.0005142910103816962
53 -0.0014817867799379976 0.0020367914705690924 0.0012101489251695754
18 -0.0003682591178083127 0.0015509284403640094 -0.00011827979975934313
38 -0.001091632651931864 0.0005189158950841846 -0.0011023215385252449
37 -0.0016504643218324725 0.0029135797162332753 0.0008413502818786837
46 0.0024333139915833023 0.003739138924309457 0.001219285167014049
47 -0.0017006467000792948 -0.0020591884575691353 0.0008780495242743057
45 0.001510972520898464 -0.0020478033334695106 0.003159054260955577
44 -0.00034898953157705024 -0.00044407379930877934 -0.0015836076004592536
13 -0.0013714623084916543 -0.0014160152489581651 0.0017964606254862359
43 0.0004135410908313144 -0.00023914955679482213 0.000289063193910366
4 -0.003791432550558164 0.004307377290763207 -0.0005926470675644811
1 -0.000686301815380842 -0.001202736756345155 0.00030704911812100516
2 -0.002842872942446683 0.00020643373988154336 -0.0014950386410576958
3 0.0010255414339811703 -0.0002288230478365158 -0.0015367829090149204
5 -0.0011237096558240705 -0.0010803162178690082 -0.00039555767062635593
6 0.0012521531177449089 0.0004265567993387217 -0.0013683088083898999
34 1.9822590099636785e-05 0.0002746704689385067 -0.0011638851878780269
33 -0.0028941984117493774 -0.00195700132973833 -0.0026563954983069714
14 0.00018712214886476274 0.0001684760251825422 0.0010791781052698
15 -0.002162540863542024 -0.002359853077058988 -1.3187593441527223e-05
11 0.0014249425338500469 -0.001587360645288602 0.0003784639301644496
17 -9.425181007414129e-05 0.00019651719077999434 9.487135722779057e-06
16 0.0020699387960850272 -0.001252845527420611 -0.0009601915112162322
31 0.002605033806889818 -0.0007138862442866217 -0.0011320039056413541
32 0.0013924849360733493 0.0005525091702452045 -0.0007998208780125853
36 -0.00039449033563531804 2.803246640583912e-05 0.001934023873100348
35 0.0003013700779403819 0.00027195948881139387 -0.0009953227105120952
12 -0.0006451878931813755 0.00021729528307760286 -0.0005814022853373344

Bonds

1 1 25 26
2 1 26 27
3 1 41 42
4 1 40 41
5 1 39 40
6 1 27 28
7 1 19 20
8 1 58 59
9 1 59 60
10 1 57 58
11 1 49 50
12 1 50 51
13 1 51 52
14 1 29 30
15 1 28 29
16 1 56 57
17 1 55 56
18 1 52 53
19 1 23 24
20 1 20 21
21 1 22 23
22 1 21 22
23 1 9 10
24 1 10 11
25 1 8 9
26 1 7 8
27 1 53 54
28 1 38 39
29 1 37 38
30 1 46 47
31 1 47 48
32 1 45 46
33 1 44 45
34 1 13 14
35 1 43 44
36 1 4 5
37 1 1 2
38 1 2 3
39 1 3 4
40 1 5 6
41 1 34 35
42 1 33 34
43 1 14 15
44 1 15 16
45 1 11 12
46 1 17 18
47 1 16 17
48 1 31 32
49 1 32 33
50 1 35 36
